Argon-bulk
  864
    1   AR   Ar    1   0.274   0.163   0.140
    1   AR   Ar    2  10.600   0.503   1.163
    1   AR   Ar    3   0.979   0.227   1.099
    1   AR   Ar    4   1.049   0.939  10.260
    1   AR   Ar    5  10.477  10.343   1.922
    1   AR   Ar    6  10.437   0.644   2.497
    1   AR   Ar    7   1.070   0.064   2.886
    1   AR   Ar    8   0.755   0.848   1.946
    1   AR   Ar    9   0.106   0.063   3.624
    1   AR   Ar   10  10.380   0.967   4.316
    1   AR   Ar   11   0.732   0.295   4.433
    1   AR   Ar   12   1.135   0.979   3.453
    1   AR   Ar   13   0.027   0.049   5.323
    1   AR   Ar   14   0.098   0.648   6.322
    1   AR   Ar   15   1.131  10.481   6.284
    1   AR   Ar   16   1.074   0.549   5.374
    1   AR   Ar   17   0.494  10.575   7.186
    1   AR   Ar   18  10.521   1.001   8.148
    1   AR   Ar   19   1.127   0.203   8.101
    1   AR   Ar   20   0.911   0.812   6.929
    1   AR   Ar   21  10.539   0.264   8.830
    1   AR   Ar   22   0.017   0.875   9.710
    1   AR   Ar   23   0.402  10.559   9.747
    1   AR   Ar   24   1.048   0.912   9.012
    1   AR   Ar   25   0.265   1.460  10.541
    1   AR   Ar   26   0.176   2.457   1.020
    1   AR   Ar   27   0.738   1.532   0.990
    1   AR   Ar   28   1.032   2.765   0.360
    1   AR   Ar   29  10.563   1.698   1.838
    1   AR   Ar   30  10.542   2.977   2.765
    1   AR   Ar   31   0.781   1.982   2.546
    1   AR   Ar   32   0.995   2.568   1.702
    1   AR   Ar   33   0.210   1.571   3.486
    1   AR   Ar   34   0.026   2.636   4.346
    1   AR   Ar   35   1.047   2.219   4.259
    1   AR   Ar   36   0.801   2.666   3.464
    1   AR   Ar   37   0.079   1.687   5.017
    1   AR   Ar   38   0.066   2.671   6.088
    1   AR   Ar   39   0.806   1.718   6.053
    1   AR   Ar   40   0.912   2.570   5.397
    1   AR   Ar   41  10.491   1.341   7.154
    1   AR   Ar   42  10.546   2.696   8.266
    1   AR   Ar   43   0.929   1.627   7.833
    1   AR   Ar   44   0.770   2.701   7.029
    1   AR   Ar   45   0.132   1.572   8.953
    1   AR   Ar   46   0.216   2.468  10.349
    1   AR   Ar   47   0.972   2.053   9.781
    1   AR   Ar   48   1.133   2.792   8.544
    1   AR   Ar   49   0.253   3.716   0.185
    1   AR   Ar   50   0.015   4.441   1.088
    1   AR   Ar   51   0.944   3.549   1.066
    1   AR   Ar   52   0.970   4.533   0.147
    1   AR   Ar   53  10.595   3.484   2.006
    1   AR   Ar   54  10.461   4.303   2.646
    1   AR   Ar   55   0.770   3.588   2.561
    1   AR   Ar   56   0.798   4.452   1.798
    1   AR   Ar   57   0.285   3.594   3.675
    1   AR   Ar   58  10.491   4.511   4.234
    1   AR   Ar   59   1.063   3.284   4.523
    1   AR   Ar   60   0.918   4.255   3.221
    1   AR   Ar   61   0.068   3.596   5.533
    1   AR   Ar   62  10.637   4.435   6.458
    1   AR   Ar   63   0.794   3.533   6.272
    1   AR   Ar   64   0.619   4.220   5.080
    1   AR   Ar   65  10.573   3.689   7.330
    1   AR   Ar   66  10.579   4.572   8.132
    1   AR   Ar   67   0.935   3.590   7.683
    1   AR   Ar   68   0.535   4.511   7.274
    1   AR   Ar   69   0.290   3.765   8.756
    1   AR   Ar   70   0.358   4.349   9.941
    1   AR   Ar   71   0.764   3.350   9.949
    1   AR   Ar   72   0.812   4.790   8.880
    1   AR   Ar   73   0.008   5.027   0.017
    1   AR   Ar   74   0.163   6.304   0.698
    1   AR   Ar   75   1.107   5.679   0.755
    1   AR   Ar   76   0.788   6.312  10.490
    1   AR   Ar   77   0.040   5.316   2.313
    1   AR   Ar   78  10.649   6.362   2.677
    1   AR   Ar   79   0.944   5.778   2.684
    1   AR   Ar   80   0.711   6.096   1.612
    1   AR   Ar   81  10.510   5.220   3.440
    1   AR   Ar   82   0.043   6.165   4.643
    1   AR   Ar   83   0.777   5.195   4.713
    1   AR   Ar   84   0.587   5.984   3.675
    1   AR   Ar   85  10.594   5.053   5.419
    1   AR   Ar   86  10.578   6.162   5.981
    1   AR   Ar   87   0.930   5.759   6.501
    1   AR   Ar   88   0.757   5.980   5.394
    1   AR   Ar   89  10.370   5.545   7.060
    1   AR   Ar   90  10.616   6.479   8.120
    1   AR   Ar   91   0.432   5.477   7.922
    1   AR   Ar   92   0.864   6.436   7.595
    1   AR   Ar   93  10.531   5.347   9.002
    1   AR   Ar   94  10.486   6.322   9.710
    1   AR   Ar   95   0.715   5.518   9.732
    1   AR   Ar   96   0.760   6.258   8.984
    1   AR   Ar   97  10.619   7.174   0.024
    1   AR   Ar   98  10.383   7.715   1.009
    1   AR   Ar   99   1.017   7.269   0.900
    1   AR   Ar  100   0.771   8.053   0.041
    1   AR   Ar  101   0.052   7.260   1.958
    1   AR   Ar  102   0.129   8.084   2.749
    1   AR   Ar  103   0.739   7.201   2.809
    1   AR   Ar  104   1.096   8.088   1.498
    1   AR   Ar  105   0.141   7.324   3.713
    1   AR   Ar  106   0.184   8.017   4.503
    1   AR   Ar  107   0.913   6.984   4.306
    1   AR   Ar  108   1.093   8.056   3.460
    1   AR   Ar  109   0.048   6.975   5.245
    1   AR   Ar  110   0.191   7.857   6.039
    1   AR   Ar  111   0.684   6.855   6.154
    1   AR   Ar  112   0.962   7.803   5.251
    1   AR   Ar  113   0.341   7.344   7.281
    1   AR   Ar  114  10.457   8.156   7.795
    1   AR   Ar  115   0.754   7.471   8.212
    1   AR   Ar  116   0.650   8.332   6.935
    1   AR   Ar  117  10.527   7.246   8.915
    1   AR   Ar  118  10.632   7.899   9.941
    1   AR   Ar  119   0.746   7.179   9.874
    1   AR   Ar  120   0.879   8.286   9.193
    1   AR   Ar  121   0.005   8.629   0.071
    1   AR   Ar  122   0.341  10.023   1.077
    1   AR   Ar  123   0.908   8.985   0.968
    1   AR   Ar  124   0.981   9.876   0.137
    1   AR   Ar  125   0.238   8.517   1.697
    1   AR   Ar  126   0.077   9.717   2.918
    1   AR   Ar  127   0.968   8.767   2.555
    1   AR   Ar  128   0.755   9.569   1.941
    1   AR   Ar  129   0.211   8.683   3.634
    1   AR   Ar  130  10.618   9.749   4.524
    1   AR   Ar  131   0.941   8.918   4.535
    1   AR   Ar  132   1.032   9.289   3.493
    1   AR   Ar  133  10.654   8.992   5.350
    1   AR   Ar  134   0.135  10.158   6.177
    1   AR   Ar  135   0.623   9.044   6.146
    1   AR   Ar  136   1.079   9.809   5.373
    1   AR   Ar  137   0.047   9.134   7.162
    1   AR   Ar  138  10.595  10.322   7.919
    1   AR   Ar  139   0.858   8.892   7.986
    1   AR   Ar  140   1.239   9.588   6.988
    1   AR   Ar  141  10.499   9.006   8.355
    1   AR   Ar  142  10.386   9.860  10.230
    1   AR   Ar  143   0.728   8.993   9.942
    1   AR   Ar  144   0.901   9.883   8.671
    1   AR   Ar  145   1.726   0.066  10.325
    1   AR   Ar  146   1.632   1.002   0.921
    1   AR   Ar  147   2.579   0.219   0.841
    1   AR   Ar  148   2.310   0.948   0.172
    1   AR   Ar  149   1.630  10.293   1.623
    1   AR   Ar  150   1.878   1.173   2.601
    1   AR   Ar  151   2.503  10.512   2.861
    1   AR   Ar  152   2.871   0.971   1.708
    1   AR   Ar  153   1.566  10.372   3.681
    1   AR   Ar  154   1.774   0.357   4.473
    1   AR   Ar  155   2.691  10.667   4.717
    1   AR   Ar  156   2.414   0.951   3.464
    1   AR   Ar  157   1.980  10.545   5.640
    1   AR   Ar  158   1.737   0.997   6.203
    1   AR   Ar  159   2.853   0.194   6.272
    1   AR   Ar  160   2.445   1.194   5.252
    1   AR   Ar  161   1.778  10.660   7.160
    1   AR   Ar  162   1.906   0.850   7.812
    1   AR   Ar  163   2.636  10.645   8.008
    1   AR   Ar  164   2.680   1.242   7.020
    1   AR   Ar  165   1.603  10.669   9.142
    1   AR   Ar  166   1.905   0.938   9.589
    1   AR   Ar  167   2.651   0.106   9.903
    1   AR   Ar  168   2.683   0.974   8.883
    1   AR   Ar  169   1.427   1.630   0.144
    1   AR   Ar  170   1.839   2.289   0.834
    1   AR   Ar  171   2.812   1.730   0.837
    1   AR   Ar  172   2.246   2.592  10.607
    1   AR   Ar  173   1.647   1.712   1.721
    1   AR   Ar  174   1.701   2.987   2.236
    1   AR   Ar  175   2.797   2.133   2.723
    1   AR   Ar  176   2.808   2.536   1.703
    1   AR   Ar  177   1.844   2.171   3.315
    1   AR   Ar  178   1.946   2.730   4.337
    1   AR   Ar  179   2.772   2.018   4.355
    1   AR   Ar  180   2.762   2.708   3.528
    1   AR   Ar  181   1.657   1.864   5.182
    1   AR   Ar  182   1.790   2.885   6.279
    1   AR   Ar  183   2.547   1.665   6.076
    1   AR   Ar  184   2.516   2.630   5.397
    1   AR   Ar  185   1.451   1.761   6.864
    1   AR   Ar  186   1.877   2.262   7.716
    1   AR   Ar  187   2.718   1.738   7.929
    1   AR   Ar  188   2.539   2.731   7.074
    1   AR   Ar  189   1.854   1.775   8.601
    1   AR   Ar  190   1.962   2.748   9.634
    1   AR   Ar  191   2.791   1.867   9.907
    1   AR   Ar  192   2.365   2.996   8.687
    1   AR   Ar  193   1.694   3.480  10.573
    1   AR   Ar  194   1.604   4.515   0.996
    1   AR   Ar  195   2.757   3.857   0.710
    1   AR   Ar  196   2.697   4.264  10.135
    1   AR   Ar  197   1.860   3.859   1.818
    1   AR   Ar  198   1.912   4.493   2.670
    1   AR   Ar  199   2.733   3.290   2.613
    1   AR   Ar  200   2.795   4.398   1.847
    1   AR   Ar  201   1.675   3.472   3.206
    1   AR   Ar  202   1.728   4.037   4.424
    1   AR   Ar  203   2.634   3.553   4.403
    1   AR   Ar  204   2.659   4.455   3.798
    1   AR   Ar  205   1.918   3.633   5.421
    1   AR   Ar  206   1.309   4.506   6.103
    1   AR   Ar  207   2.801   3.381   6.077
    1   AR   Ar  208   2.814   4.336   5.238
    1   AR   Ar  209   1.703   3.831   6.791
    1   AR   Ar  210   1.439   4.836   7.643
    1   AR   Ar  211   2.245   3.542   7.794
    1   AR   Ar  212   2.772   4.428   7.118
    1   AR   Ar  213   1.625   3.762   9.497
    1   AR   Ar  214   1.909   4.840   9.593
    1   AR   Ar  215   2.896   3.300   9.653
    1   AR   Ar  216   2.274   4.408   8.636
    1   AR   Ar  217   1.913   5.367   0.305
    1   AR   Ar  218   1.876   6.408   0.862
    1   AR   Ar  219   2.779   5.188   1.012
    1   AR   Ar  220   2.708   6.054  10.492
    1   AR   Ar  221   1.403   5.328   1.721
    1   AR   Ar  222   1.860   6.239   3.139
    1   AR   Ar  223   2.731   5.086   2.845
    1   AR   Ar  224   2.427   5.854   1.837
    1   AR   Ar  225   1.342   5.146   3.866
    1   AR   Ar  226   1.534   6.111   4.493
    1   AR   Ar  227   2.364   5.284   4.400
    1   AR   Ar  228   2.860   6.548   3.779
    1   AR   Ar  229   2.016   5.081   5.559
    1   AR   Ar  230   1.811   6.075   6.022
    1   AR   Ar  231   2.773   5.263   6.340
    1   AR   Ar  232   2.827   6.458   4.888
    1   AR   Ar  233   1.875   5.106   6.728
    1   AR   Ar  234   1.780   6.107   7.885
    1   AR   Ar  235   2.535   5.418   7.851
    1   AR   Ar  236   2.568   6.576   7.214
    1   AR   Ar  237   1.630   5.432   8.771
    1   AR   Ar  238   1.738   6.120   9.630
    1   AR   Ar  239   2.808   5.335   9.635
    1   AR   Ar  240   2.596   6.153   8.735
    1   AR   Ar  241   1.810   7.337  10.441
    1   AR   Ar  242   2.081   7.927   1.154
    1   AR   Ar  243   2.774   7.102   1.153
    1   AR   Ar  244   2.851   8.087   0.138
    1   AR   Ar  245   1.622   6.945   1.861
    1   AR   Ar  246   1.938   7.812   2.520
    1   AR   Ar  247   2.594   6.822   2.740
    1   AR   Ar  248   3.068   7.954   1.675
    1   AR   Ar  249   1.866   7.243   3.726
    1   AR   Ar  250   1.479   8.085   4.341
    1   AR   Ar  251   2.431   7.514   4.626
    1   AR   Ar  252   2.775   7.787   3.472
    1   AR   Ar  253   1.480   6.909   5.114
    1   AR   Ar  254   1.475   7.953   6.187
    1   AR   Ar  255   2.511   7.004   5.951
    1   AR   Ar  256   3.106   7.983   5.135
    1   AR   Ar  257   1.624   7.123   7.141
    1   AR   Ar  258   1.854   7.927   8.163
    1   AR   Ar  259   2.731   7.138   8.177
    1   AR   Ar  260   2.606   7.829   7.227
    1   AR   Ar  261   1.499   7.399   9.086
    1   AR   Ar  262   2.006   8.141   9.779
    1   AR   Ar  263   2.618   7.247   9.832
    1   AR   Ar  264   2.780   7.965   9.002
    1   AR   Ar  265   1.978   8.557   0.017
    1   AR   Ar  266   1.914   9.941   0.719
    1   AR   Ar  267   2.831   8.804   0.910
    1   AR   Ar  268   2.916   9.631   0.081
    1   AR   Ar  269   1.698   9.247   1.601
    1   AR   Ar  270   1.786   9.581   2.648
    1   AR   Ar  271   2.733   9.339   2.248
    1   AR   Ar  272   2.950   9.840   1.198
    1   AR   Ar  273   1.990   8.702   3.399
    1   AR   Ar  274   1.606   9.749   4.562
    1   AR   Ar  275   2.560   8.668   4.427
    1   AR   Ar  276   2.523   9.893   3.835
    1   AR   Ar  277   1.739   8.710   5.239
    1   AR   Ar  278   1.705   9.471   6.051
    1   AR   Ar  279   2.333   8.468   6.039
    1   AR   Ar  280   2.617   9.591   5.424
    1   AR   Ar  281   1.775   8.621   7.358
    1   AR   Ar  282   1.904   9.860   8.119
    1   AR   Ar  283   2.653   8.865   8.052
    1   AR   Ar  284   2.482   9.811   7.111
    1   AR   Ar  285   1.736   9.065   9.170
    1   AR   Ar  286   1.872   9.674  10.211
    1   AR   Ar  287   2.672   8.978   9.727
    1   AR   Ar  288   2.922   9.655   9.012
    1   AR   Ar  289   3.529   0.270   0.004
    1   AR   Ar  290   3.805   0.832   0.985
    1   AR   Ar  291   4.678   0.061   1.038
    1   AR   Ar  292   4.465   0.853   0.128
    1   AR   Ar  293   3.744  10.593   1.761
    1   AR   Ar  294   3.605   0.603   2.486
    1   AR   Ar  295   4.550   0.063   2.650
    1   AR   Ar  296   4.693   0.928   1.750
    1   AR   Ar  297   3.318   0.007   3.777
    1   AR   Ar  298   3.581   0.891   4.731
    1   AR   Ar  299   4.352  10.653   4.473
    1   AR   Ar  300   4.198   0.884   3.738
    1   AR   Ar  301   3.607  10.418   5.260
    1   AR   Ar  302   3.665   0.894   5.824
    1   AR   Ar  303   4.311   0.085   6.588
    1   AR   Ar  304   4.799   1.107   5.318
    1   AR   Ar  305   3.500  10.423   7.270
    1   AR   Ar  306   3.423   1.000   8.041
    1   AR   Ar  307   4.447   0.397   7.796
    1   AR   Ar  308   4.583   1.184   7.179
    1   AR   Ar  309   3.557   0.240   8.643
    1   AR   Ar  310   3.786   0.967   9.694
    1   AR   Ar  311   5.006  10.499   9.831
    1   AR   Ar  312   4.592   1.104   8.800
    1   AR   Ar  313   3.724   1.732   0.167
    1   AR   Ar  314   3.196   2.731   0.686
    1   AR   Ar  315   4.474   1.834   0.981
    1   AR   Ar  316   4.535   2.623  10.664
    1   AR   Ar  317   3.553   1.807   1.828
    1   AR   Ar  318   3.568   2.833   2.802
    1   AR   Ar  319   4.578   1.778   2.430
    1   AR   Ar  320   4.379   2.814   1.457
    1   AR   Ar  321   3.447   1.604   3.489
    1   AR   Ar  322   3.389   2.766   4.423
    1   AR   Ar  323   4.294   1.694   4.532
    1   AR   Ar  324   4.499   2.616   3.468
    1   AR   Ar  325   3.357   2.011   5.218
    1   AR   Ar  326   3.527   2.664   6.019
    1   AR   Ar  327   4.426   1.845   6.261
    1   AR   Ar  328   4.356   2.529   5.325
    1   AR   Ar  329   3.700   1.644   7.204
    1   AR   Ar  330   3.707   2.865   8.043
    1   AR   Ar  331   4.350   1.676   8.047
    1   AR   Ar  332   4.441   2.531   7.196
    1   AR   Ar  333   3.511   1.802   8.830
    1   AR   Ar  334   3.545   2.506  10.279
    1   AR   Ar  335   4.617   1.577  10.042
    1   AR   Ar  336   4.844   2.384   8.687
    1   AR   Ar  337   3.610   3.697  10.491
    1   AR   Ar  338   3.817   4.607   0.945
    1   AR   Ar  339   4.020   3.517   0.698
    1   AR   Ar  340   4.434   4.468  10.434
    1   AR   Ar  341   3.563   3.610   1.688
    1   AR   Ar  342   3.672   4.577   2.396
    1   AR   Ar  343   4.389   3.406   2.490
    1   AR   Ar  344   4.998   4.435   1.725
    1   AR   Ar  345   3.532   3.562   3.530
    1   AR   Ar  346   3.591   4.260   4.393
    1   AR   Ar  347   4.302   3.555   4.455
    1   AR   Ar  348   4.251   4.442   3.348
    1   AR   Ar  349   3.609   3.402   5.367
    1   AR   Ar  350   3.449   4.275   6.152
    1   AR   Ar  351   4.625   3.532   5.945
    1   AR   Ar  352   4.175   4.463   5.252
    1   AR   Ar  353   3.526   3.437   7.059
    1   AR   Ar  354   3.746   4.142   8.053
    1   AR   Ar  355   4.581   3.426   8.097
    1   AR   Ar  356   4.388   4.196   7.016
    1   AR   Ar  357   3.618   3.103   8.994
    1   AR   Ar  358   3.736   4.573   9.804
    1   AR   Ar  359   4.479   3.505   9.823
    1   AR   Ar  360   4.736   4.243   8.951
    1   AR   Ar  361   3.479   5.386   0.168
    1   AR   Ar  362   3.509   6.288   0.726
    1   AR   Ar  363   4.623   5.296   1.054
    1   AR   Ar  364   4.478   6.349   0.018
    1   AR   Ar  365   3.638   5.673   1.768
    1   AR   Ar  366   3.547   6.413   2.749
    1   AR   Ar  367   4.568   5.398   2.618
    1   AR   Ar  368   4.466   6.331   1.896
    1   AR   Ar  369   3.499   5.281   3.616
    1   AR   Ar  370   3.964   6.506   4.272
    1   AR   Ar  371   4.486   5.253   4.051
    1   AR   Ar  372   4.480   6.066   3.420
    1   AR   Ar  373   3.507   5.390   4.749
    1   AR   Ar  374   3.589   6.214   6.416
    1   AR   Ar  375   4.395   4.938   6.234
    1   AR   Ar  376   4.440   6.306   5.345
    1   AR   Ar  377   3.462   5.487   7.206
    1   AR   Ar  378   3.439   6.134   8.068
    1   AR   Ar  379   4.724   5.118   8.251
    1   AR   Ar  380   4.286   6.157   7.321
    1   AR   Ar  381   3.657   5.405   8.937
    1   AR   Ar  382   3.696   6.299   9.973
    1   AR   Ar  383   4.612   5.506   9.900
    1   AR   Ar  384   4.296   6.252   9.053
    1   AR   Ar  385   3.495   7.188   0.090
    1   AR   Ar  386   3.770   8.118   0.862
    1   AR   Ar  387   4.425   7.183   0.807
    1   AR   Ar  388   4.416   7.933  10.552
    1   AR   Ar  389   3.726   6.868   1.715
    1   AR   Ar  390   3.426   8.335   2.559
    1   AR   Ar  391   4.415   7.016   2.574
    1   AR   Ar  392   4.369   8.049   1.924
    1   AR   Ar  393   3.798   7.234   3.349
    1   AR   Ar  394   3.504   7.997   4.105
    1   AR   Ar  395   4.486   7.519   4.252
    1   AR   Ar  396   4.382   8.280   3.214
    1   AR   Ar  397   3.714   7.151   5.563
    1   AR   Ar  398   3.634   8.163   6.147
    1   AR   Ar  399   4.606   7.448   6.047
    1   AR   Ar  400   4.295   8.078   5.304
    1   AR   Ar  401   3.432   7.003   7.474
    1   AR   Ar  402   3.691   7.866   8.232
    1   AR   Ar  403   4.597   7.320   8.331
    1   AR   Ar  404   4.470   8.162   7.176
    1   AR   Ar  405   3.547   7.124   8.996
    1   AR   Ar  406   3.418   8.032   9.956
    1   AR   Ar  407   4.193   7.133   9.967
    1   AR   Ar  408   4.358   7.779   9.222
    1   AR   Ar  409   3.718   8.748   0.072
    1   AR   Ar  410   3.924   9.917   0.947
    1   AR   Ar  411   4.675   8.747   1.140
    1   AR   Ar  412   4.276   9.880  10.632
    1   AR   Ar  413   3.686   9.204   1.686
    1   AR   Ar  414   3.563  10.212   2.799
    1   AR   Ar  415   4.319   9.089   2.702
    1   AR   Ar  416   4.711   9.814   1.910
    1   AR   Ar  417   3.662   8.978   3.459
    1   AR   Ar  418   3.810   9.678   4.366
    1   AR   Ar  419   4.220   8.639   4.318
    1   AR   Ar  420   4.522   9.797   3.493
    1   AR   Ar  421   3.551   8.966   5.193
    1   AR   Ar  422   3.669   9.694   6.085
    1   AR   Ar  423   4.616   9.100   6.316
    1   AR   Ar  424   4.520   9.846   5.257
    1   AR   Ar  425   3.181   8.854   6.769
    1   AR   Ar  426   3.186   9.619   7.852
    1   AR   Ar  427   4.391   8.538   8.195
    1   AR   Ar  428   4.223   9.954   7.827
    1   AR   Ar  429   3.650   8.642   9.180
    1   AR   Ar  430   3.422   9.930   9.846
    1   AR   Ar  431   4.609   8.869   9.676
    1   AR   Ar  432   4.449  10.273   8.850
    1   AR   Ar  433   5.376   0.105   0.271
    1   AR   Ar  434   5.311   0.840   0.874
    1   AR   Ar  435   6.173   0.087   1.073
    1   AR   Ar  436   6.335   0.897   0.207
    1   AR   Ar  437   5.382   0.034   1.998
    1   AR   Ar  438   5.562   1.251   2.582
    1   AR   Ar  439   6.117   0.325   2.874
    1   AR   Ar  440   6.218   0.797   1.806
    1   AR   Ar  441   5.326  10.487   3.837
    1   AR   Ar  442   5.223   0.956   4.293
    1   AR   Ar  443   6.218   0.148   4.277
    1   AR   Ar  444   6.199   1.006   3.640
    1   AR   Ar  445   5.283  10.673   5.150
    1   AR   Ar  446   5.138   0.945   6.321
    1   AR   Ar  447   6.300  10.494   6.212
    1   AR   Ar  448   5.945   0.845   5.157
    1   AR   Ar  449   5.334  10.530   7.129
    1   AR   Ar  450   5.400   0.740   7.789
    1   AR   Ar  451   6.511   0.100   7.881
    1   AR   Ar  452   6.079   0.517   7.011
    1   AR   Ar  453   5.524   0.150   8.968
    1   AR   Ar  454   5.703   1.095  10.123
    1   AR   Ar  455   6.068   0.061  10.037
    1   AR   Ar  456   6.243   0.856   8.633
    1   AR   Ar  457   5.240   1.819   0.194
    1   AR   Ar  458   5.284   2.491   1.031
    1   AR   Ar  459   6.357   1.828   0.832
    1   AR   Ar  460   6.233   2.865   0.071
    1   AR   Ar  461   5.643   1.721   1.637
    1   AR   Ar  462   5.490   2.518   2.749
    1   AR   Ar  463   6.355   1.936   2.602
    1   AR   Ar  464   6.256   2.550   1.565
    1   AR   Ar  465   5.292   1.772   3.440
    1   AR   Ar  466   5.298   2.724   4.541
    1   AR   Ar  467   5.718   1.835   4.594
    1   AR   Ar  468   6.170   2.593   3.754
    1   AR   Ar  469   5.478   1.920   5.641
    1   AR   Ar  470   5.097   2.719   6.252
    1   AR   Ar  471   6.167   1.331   6.236
    1   AR   Ar  472   6.159   2.781   6.085
    1   AR   Ar  473   5.270   1.911   6.949
    1   AR   Ar  474   5.480   3.061   7.941
    1   AR   Ar  475   6.112   1.668   7.671
    1   AR   Ar  476   6.337   2.658   7.132
    1   AR   Ar  477   5.545   1.628   9.207
    1   AR   Ar  478   5.379   2.630   9.719
    1   AR   Ar  479   6.446   1.918   9.772
    1   AR   Ar  480   6.101   2.590   8.975
    1   AR   Ar  481   5.399   3.466   0.073
    1   AR   Ar  482   5.490   4.497   0.725
    1   AR   Ar  483   6.338   3.538   0.966
    1   AR   Ar  484   6.185   4.256  10.250
    1   AR   Ar  485   5.321   3.232   1.994
    1   AR   Ar  486   5.107   4.147   2.725
    1   AR   Ar  487   6.392   3.480   2.702
    1   AR   Ar  488   5.975   4.172   1.856
    1   AR   Ar  489   5.335   3.342   3.445
    1   AR   Ar  490   5.422   4.557   3.844
    1   AR   Ar  491   6.183   3.250   5.021
    1   AR   Ar  492   6.465   4.618   3.549
    1   AR   Ar  493   5.189   3.725   5.125
    1   AR   Ar  494   5.398   4.549   6.624
    1   AR   Ar  495   5.944   3.903   5.936
    1   AR   Ar  496   6.380   4.674   5.420
    1   AR   Ar  497   5.303   3.537   6.981
    1   AR   Ar  498   5.198   4.363   7.717
    1   AR   Ar  499   6.561   3.471   8.083
    1   AR   Ar  500   6.383   4.485   7.377
    1   AR   Ar  501   5.396   3.472   9.020
    1   AR   Ar  502   5.263   4.403   9.795
    1   AR   Ar  503   6.346   3.186   9.771
    1   AR   Ar  504   6.132   4.251   9.092
    1   AR   Ar  505   5.261   5.515  10.665
    1   AR   Ar  506   5.412   6.605   0.690
    1   AR   Ar  507   6.210   5.401   0.574
    1   AR   Ar  508   6.353   6.390   0.105
    1   AR   Ar  509   5.405   5.414   1.806
    1   AR   Ar  510   5.292   6.201   2.603
    1   AR   Ar  511   6.112   5.347   2.549
    1   AR   Ar  512   6.212   6.207   1.899
    1   AR   Ar  513   5.415   5.550   3.492
    1   AR   Ar  514   4.997   6.226   4.303
    1   AR   Ar  515   6.227   5.498   4.372
    1   AR   Ar  516   6.206   6.282   3.582
    1   AR   Ar  517   5.298   4.746   5.562
    1   AR   Ar  518   5.131   6.273   6.195
    1   AR   Ar  519   6.220   5.422   6.305
    1   AR   Ar  520   6.188   6.323   4.971
    1   AR   Ar  521   5.383   5.411   7.205
    1   AR   Ar  522   5.612   6.057   8.197
    1   AR   Ar  523   6.225   5.256   8.122
    1   AR   Ar  524   6.752   6.304   7.120
    1   AR   Ar  525   5.573   5.410   9.013
    1   AR   Ar  526   5.573   6.327   9.930
    1   AR   Ar  527   6.213   5.497  10.240
    1   AR   Ar  528   6.354   6.278   9.076
    1   AR   Ar  529   5.131   7.112  10.469
    1   AR   Ar  530   5.405   7.671   0.744
    1   AR   Ar  531   6.335   7.184   0.822
    1   AR   Ar  532   6.011   8.074  10.596
    1   AR   Ar  533   5.410   6.864   1.914
    1   AR   Ar  534   5.260   7.677   2.998
    1   AR   Ar  535   6.282   7.431   3.174
    1   AR   Ar  536   6.111   7.910   2.010
    1   AR   Ar  537   5.126   6.948   3.636
    1   AR   Ar  538   5.403   8.027   4.554
    1   AR   Ar  539   6.274   7.409   4.212
    1   AR   Ar  540   6.188   8.345   3.574
    1   AR   Ar  541   5.508   7.239   5.376
    1   AR   Ar  542   5.369   8.163   6.112
    1   AR   Ar  543   6.376   6.873   6.299
    1   AR   Ar  544   6.307   8.107   5.212
    1   AR   Ar  545   5.374   7.365   6.989
    1   AR   Ar  546   5.302   8.179   8.122
    1   AR   Ar  547   6.380   7.512   8.046
    1   AR   Ar  548   6.294   8.102   7.053
    1   AR   Ar  549   5.545   7.267   8.835
    1   AR   Ar  550   5.415   8.165   9.713
    1   AR   Ar  551   6.170   7.214   9.922
    1   AR   Ar  552   6.103   8.593   8.961
    1   AR   Ar  553   5.076   8.816  10.646
    1   AR   Ar  554   5.289   9.651   0.678
    1   AR   Ar  555   5.790   8.702   1.004
    1   AR   Ar  556   6.184  10.089   0.132
    1   AR   Ar  557   5.196   8.830   2.138
    1   AR   Ar  558   5.531   9.988   2.706
    1   AR   Ar  559   6.129   9.146   2.483
    1   AR   Ar  560   6.122   9.960   1.680
    1   AR   Ar  561   5.294   8.830   3.208
    1   AR   Ar  562   5.010   9.626   4.424
    1   AR   Ar  563   6.056   9.069   4.350
    1   AR   Ar  564   5.953   9.697   3.576
    1   AR   Ar  565   5.851   9.065   5.323
    1   AR   Ar  566   5.430   9.668   6.462
    1   AR   Ar  567   6.173   9.002   6.486
    1   AR   Ar  568   6.123  10.037   5.210
    1   AR   Ar  569   5.120   9.277   7.456
    1   AR   Ar  570   5.520  10.199   8.104
    1   AR   Ar  571   6.345   8.720   7.942
    1   AR   Ar  572   6.116   9.830   7.160
    1   AR   Ar  573   5.342   9.254   8.653
    1   AR   Ar  574   5.389   9.422   9.884
    1   AR   Ar  575   6.451   8.968   9.949
    1   AR   Ar  576   6.235   9.572   9.185
    1   AR   Ar  577   7.077   0.156   0.104
    1   AR   Ar  578   7.075   0.950   1.008
    1   AR   Ar  579   7.964   0.107   0.934
    1   AR   Ar  580   7.943   1.023  10.630
    1   AR   Ar  581   6.974  10.597   1.827
    1   AR   Ar  582   7.094   0.973   2.623
    1   AR   Ar  583   7.852  10.668   2.400
    1   AR   Ar  584   8.052   0.838   1.771
    1   AR   Ar  585   7.057   0.256   3.509
    1   AR   Ar  586   7.007   0.891   4.424
    1   AR   Ar  587   7.963   0.047   4.532
    1   AR   Ar  588   8.142   1.013   3.670
    1   AR   Ar  589   6.865   0.201   5.239
    1   AR   Ar  590   7.282   1.394   6.002
    1   AR   Ar  591   7.637  10.594   5.859
    1   AR   Ar  592   7.966   0.989   5.124
    1   AR   Ar  593   7.002  10.531   7.042
    1   AR   Ar  594   7.194   0.845   8.030
    1   AR   Ar  595   7.652  10.602   7.959
    1   AR   Ar  596   8.197   0.751   7.099
    1   AR   Ar  597   7.281   0.414   9.193
    1   AR   Ar  598   7.190   1.107   9.949
    1   AR   Ar  599   8.123   0.158   9.952
    1   AR   Ar  600   8.049   0.735   8.560
    1   AR   Ar  601   7.203   1.866   0.073
    1   AR   Ar  602   7.496   2.432   1.099
    1   AR   Ar  603   8.473   1.653   0.781
    1   AR   Ar  604   7.979   2.966   0.285
    1   AR   Ar  605   6.939   1.773   1.811
    1   AR   Ar  606   7.354   2.736   2.697
    1   AR   Ar  607   8.139   1.964   2.655
    1   AR   Ar  608   8.096   2.692   1.921
    1   AR   Ar  609   7.262   1.793   3.768
    1   AR   Ar  610   6.953   2.775   4.359
    1   AR   Ar  611   8.574   1.882   4.628
    1   AR   Ar  612   8.159   2.779   4.044
    1   AR   Ar  613   6.672   1.755   5.005
    1   AR   Ar  614   7.087   2.536   6.408
    1   AR   Ar  615   8.201   1.849   5.883
    1   AR   Ar  616   7.820   2.701   5.121
    1   AR   Ar  617   7.404   1.751   7.051
    1   AR   Ar  618   7.240   2.214   8.049
    1   AR   Ar  619   8.051   1.564   7.840
    1   AR   Ar  620   8.070   2.597   6.963
    1   AR   Ar  621   6.901   1.701   8.891
    1   AR   Ar  622   7.416   2.127   9.797
    1   AR   Ar  623   8.437   1.749   9.867
    1   AR   Ar  624   7.952   2.604   8.834
    1   AR   Ar  625   7.316   3.563  10.299
    1   AR   Ar  626   7.079   4.382   0.718
    1   AR   Ar  627   7.958   3.394   1.204
    1   AR   Ar  628   7.970   4.381   0.077
    1   AR   Ar  629   7.225   3.450   1.945
    1   AR   Ar  630   6.945   4.363   2.505
    1   AR   Ar  631   8.127   3.611   2.717
    1   AR   Ar  632   7.745   4.341   1.729
    1   AR   Ar  633   7.179   3.557   3.536
    1   AR   Ar  634   7.063   4.559   4.397
    1   AR   Ar  635   8.338   3.807   4.243
    1   AR   Ar  636   7.925   4.431   3.440
    1   AR   Ar  637   7.107   3.780   5.604
    1   AR   Ar  638   6.951   4.650   6.338
    1   AR   Ar  639   8.204   3.638   6.240
    1   AR   Ar  640   7.751   4.653   5.538
    1   AR   Ar  641   6.929   3.598   6.549
    1   AR   Ar  642   7.268   4.319   7.983
    1   AR   Ar  643   7.669   3.301   7.791
    1   AR   Ar  644   8.053   4.548   7.173
    1   AR   Ar  645   7.341   3.455   8.982
    1   AR   Ar  646   7.026   4.770   9.558
    1   AR   Ar  647   8.236   3.309   9.890
    1   AR   Ar  648   8.458   4.244   8.794
    1   AR   Ar  649   7.097   5.104  10.591
    1   AR   Ar  650   6.982   6.533   1.224
    1   AR   Ar  651   7.712   5.512   0.865
    1   AR   Ar  652   7.904   6.239  10.396
    1   AR   Ar  653   6.845   5.358   1.662
    1   AR   Ar  654   7.065   6.167   2.860
    1   AR   Ar  655   7.744   5.373   2.457
    1   AR   Ar  656   8.035   6.213   1.699
    1   AR   Ar  657   7.070   5.512   3.669
    1   AR   Ar  658   7.169   6.281   4.377
    1   AR   Ar  659   7.986   5.011   4.213
    1   AR   Ar  660   8.129   6.269   3.561
    1   AR   Ar  661   7.045   5.544   5.592
    1   AR   Ar  662   7.556   6.514   6.130
    1   AR   Ar  663   7.833   5.293   6.345
    1   AR   Ar  664   8.074   6.287   5.189
    1   AR   Ar  665   7.156   5.382   7.180
    1   AR   Ar  666   6.992   6.427   8.143
    1   AR   Ar  667   7.922   5.658   8.124
    1   AR   Ar  668   7.977   6.298   7.165
    1   AR   Ar  669   7.155   5.471   8.757
    1   AR   Ar  670   6.990   6.614  10.044
    1   AR   Ar  671   8.120   4.980   9.659
    1   AR   Ar  672   7.732   6.254   9.148
    1   AR   Ar  673   7.196   7.221   0.275
    1   AR   Ar  674   7.019   8.162   1.166
    1   AR   Ar  675   7.852   7.166   1.175
    1   AR   Ar  676   7.983   7.828   0.331
    1   AR   Ar  677   7.007   7.297   1.982
    1   AR   Ar  678   7.374   8.158   2.902
    1   AR   Ar  679   8.057   7.238   2.840
    1   AR   Ar  680   7.824   7.974   1.802
    1   AR   Ar  681   7.194   7.156   3.665
    1   AR   Ar  682   7.177   8.240   4.193
    1   AR   Ar  683   8.053   7.274   4.465
    1   AR   Ar  684   8.064   7.955   3.696
    1   AR   Ar  685   7.353   7.246   5.317
    1   AR   Ar  686   7.236   8.063   6.001
    1   AR   Ar  687   8.165   7.483   6.149
    1   AR   Ar  688   8.014   8.084   5.218
    1   AR   Ar  689   7.093   7.448   7.057
    1   AR   Ar  690   7.363   7.972   8.134
    1   AR   Ar  691   7.898   7.160   7.722
    1   AR   Ar  692   7.969   8.003   7.073
    1   AR   Ar  693   7.086   7.068   8.983
    1   AR   Ar  694   6.825   8.037   9.516
    1   AR   Ar  695   7.875   7.479   9.812
    1   AR   Ar  696   8.001   8.017   8.996
    1   AR   Ar  697   7.004   8.930   0.317
    1   AR   Ar  698   7.041  10.064   0.938
    1   AR   Ar  699   7.737   9.181   1.164
    1   AR   Ar  700   7.954   9.778   0.132
    1   AR   Ar  701   7.010   9.045   1.928
    1   AR   Ar  702   6.843   9.924   2.675
    1   AR   Ar  703   7.755   9.209   2.584
    1   AR   Ar  704   8.410   9.671   1.960
    1   AR   Ar  705   7.118   9.205   3.487
    1   AR   Ar  706   7.179   9.977   4.332
    1   AR   Ar  707   8.020   8.954   4.460
    1   AR   Ar  708   8.023   9.833   3.495
    1   AR   Ar  709   7.134   8.938   5.063
    1   AR   Ar  710   6.938   9.709   5.886
    1   AR   Ar  711   8.150   8.829   6.019
    1   AR   Ar  712   8.219   9.664   5.253
    1   AR   Ar  713   7.162   8.841   7.185
    1   AR   Ar  714   6.783   9.698   8.025
    1   AR   Ar  715   7.922   9.066   8.203
    1   AR   Ar  716   7.905   9.664   7.311
    1   AR   Ar  717   7.155   8.639   8.781
    1   AR   Ar  718   7.229   9.637   9.085
    1   AR   Ar  719   7.820   8.532  10.029
    1   AR   Ar  720   8.126  10.111   8.801
    1   AR   Ar  721   8.816  10.580   0.259
    1   AR   Ar  722   8.875   0.673   0.946
    1   AR   Ar  723   9.718   0.101   1.100
    1   AR   Ar  724   9.987   1.162   0.488
    1   AR   Ar  725   9.029   0.185   2.027
    1   AR   Ar  726   8.612   0.678   2.729
    1   AR   Ar  727   9.800  10.417   2.891
    1   AR   Ar  728   9.672   1.138   1.630
    1   AR   Ar  729   8.809   0.071   3.700
    1   AR   Ar  730   8.927   0.812   4.529
    1   AR   Ar  731   9.882   0.072   4.541
    1   AR   Ar  732   9.717   1.005   3.352
    1   AR   Ar  733   8.834  10.597   5.504
    1   AR   Ar  734   8.881   0.858   6.372
    1   AR   Ar  735   9.802  10.531   6.323
    1   AR   Ar  736   9.655   0.606   5.443
    1   AR   Ar  737   8.666  10.661   7.395
    1   AR   Ar  738   8.984   1.071   8.046
    1   AR   Ar  739   9.763   0.273   8.012
    1   AR   Ar  740   9.514   0.872   7.252
    1   AR   Ar  741   9.055   0.061   8.780
    1   AR   Ar  742   8.962   0.704   9.758
    1   AR   Ar  743   9.798   0.312  10.501
    1   AR   Ar  744   9.670   1.019   8.952
    1   AR   Ar  745   9.166   1.452  10.571
    1   AR   Ar  746   8.954   2.822   0.949
    1   AR   Ar  747   9.884   2.101   0.676
    1   AR   Ar  748   9.893   2.922  10.500
    1   AR   Ar  749   8.966   1.884   1.815
    1   AR   Ar  750   9.045   2.469   2.801
    1   AR   Ar  751   9.890   1.787   2.702
    1   AR   Ar  752  10.042   2.639   1.783
    1   AR   Ar  753   8.831   1.923   3.547
    1   AR   Ar  754   9.077   2.965   4.340
    1   AR   Ar  755   9.690   1.754   4.675
    1   AR   Ar  756   9.924   2.757   3.504
    1   AR   Ar  757   9.056   1.365   5.454
    1   AR   Ar  758   8.837   2.673   6.095
    1   AR   Ar  759   9.848   1.845   6.045
    1   AR   Ar  760   9.739   2.781   5.545
    1   AR   Ar  761   8.970   1.909   7.461
    1   AR   Ar  762   8.600   2.751   7.898
    1   AR   Ar  763   9.922   1.817   7.894
    1   AR   Ar  764   9.877   2.332   6.989
    1   AR   Ar  765   8.804   1.938   8.779
    1   AR   Ar  766   9.018   2.613   9.710
    1   AR   Ar  767   9.879   1.525   9.918
    1   AR   Ar  768   9.811   2.507   8.773
    1   AR   Ar  769   8.947   3.524  10.642
    1   AR   Ar  770   9.000   4.348   0.804
    1   AR   Ar  771  10.203   3.396   1.067
    1   AR   Ar  772   9.906   3.978   0.124
    1   AR   Ar  773   8.889   3.658   1.665
    1   AR   Ar  774   8.812   4.412   2.547
    1   AR   Ar  775   9.579   3.477   2.565
    1   AR   Ar  776   9.828   4.243   1.762
    1   AR   Ar  777   9.047   3.385   3.376
    1   AR   Ar  778   8.946   4.771   4.488
    1   AR   Ar  779   9.769   3.807   4.638
    1   AR   Ar  780   9.874   4.176   3.603
    1   AR   Ar  781   8.841   3.418   5.195
    1   AR   Ar  782   8.792   4.513   6.423
    1   AR   Ar  783   9.329   3.564   6.284
    1   AR   Ar  784   9.672   4.677   5.508
    1   AR   Ar  785   8.900   3.832   7.279
    1   AR   Ar  786   9.040   4.650   7.996
    1   AR   Ar  787   9.519   3.392   7.975
    1   AR   Ar  788   9.699   4.749   7.113
    1   AR   Ar  789   8.788   3.319   8.840
    1   AR   Ar  790   8.903   4.242   9.800
    1   AR   Ar  791  10.170   3.378   9.555
    1   AR   Ar  792   9.775   4.443   8.827
    1   AR   Ar  793   8.600   5.384   0.178
    1   AR   Ar  794   8.786   6.441   0.994
    1   AR   Ar  795   9.464   5.204   1.238
    1   AR   Ar  796   9.712   6.089   0.267
    1   AR   Ar  797   8.805   5.431   2.025
    1   AR   Ar  798   9.003   6.421   2.590
    1   AR   Ar  799   9.762   5.294   2.704
    1   AR   Ar  800   9.688   6.001   1.919
    1   AR   Ar  801   9.009   5.479   3.473
    1   AR   Ar  802   8.754   6.124   4.433
    1   AR   Ar  803   9.930   5.315   4.594
    1   AR   Ar  804   9.971   6.349   3.450
    1   AR   Ar  805   8.548   5.316   5.273
    1   AR   Ar  806   8.915   6.188   6.388
    1   AR   Ar  807   9.652   5.364   6.301
    1   AR   Ar  808   9.411   5.937   5.382
    1   AR   Ar  809   8.780   5.468   7.260
    1   AR   Ar  810   8.645   6.370   7.959
    1   AR   Ar  811   9.852   5.485   8.014
    1   AR   Ar  812   9.506   6.270   7.313
    1   AR   Ar  813   9.243   5.295   9.400
    1   AR   Ar  814   9.382   6.400   9.865
    1   AR   Ar  815   9.715   5.288  10.375
    1   AR   Ar  816   9.697   6.246   8.892
    1   AR   Ar  817   8.982   6.989   0.014
    1   AR   Ar  818   9.117   8.108   0.744
    1   AR   Ar  819   9.824   6.807   1.166
    1   AR   Ar  820   9.881   7.877   0.084
    1   AR   Ar  821   8.821   7.607   1.853
    1   AR   Ar  822   8.499   8.166   2.744
    1   AR   Ar  823   9.680   7.168   2.635
    1   AR   Ar  824   9.815   8.210   1.922
    1   AR   Ar  825   8.984   6.909   3.694
    1   AR   Ar  826   8.926   7.934   4.423
    1   AR   Ar  827   9.829   7.001   4.426
    1   AR   Ar  828   9.722   8.233   3.631
    1   AR   Ar  829   8.895   7.160   5.360
    1   AR   Ar  830   9.151   8.002   6.062
    1   AR   Ar  831   9.901   7.063   6.241
    1   AR   Ar  832  10.040   7.910   5.183
    1   AR   Ar  833   8.842   7.247   7.151
    1   AR   Ar  834   8.785   8.061   7.885
    1   AR   Ar  835   9.651   7.297   7.758
    1   AR   Ar  836  10.087   7.957   6.876
    1   AR   Ar  837   8.563   7.225   8.687
    1   AR   Ar  838   8.783   8.268   9.656
    1   AR   Ar  839   9.550   7.449   9.760
    1   AR   Ar  840   9.598   7.964   8.602
    1   AR   Ar  841   9.208   8.757  10.480
    1   AR   Ar  842   8.721   9.914   0.951
    1   AR   Ar  843  10.113   9.131   0.918
    1   AR   Ar  844   9.564   9.808   0.228
    1   AR   Ar  845   8.690   8.678   1.523
    1   AR   Ar  846   8.870   9.936   2.992
    1   AR   Ar  847   9.466   9.026   2.747
    1   AR   Ar  848   9.547   9.860   1.717
    1   AR   Ar  849   8.795   9.034   3.567
    1   AR   Ar  850   8.670   9.929   4.355
    1   AR   Ar  851   9.847   8.911   4.467
    1   AR   Ar  852   9.698   9.832   3.944
    1   AR   Ar  853   9.126   8.765   5.379
    1   AR   Ar  854   8.920   9.874   6.286
    1   AR   Ar  855   9.905   8.807   6.059
    1   AR   Ar  856   9.825   9.987   5.208
    1   AR   Ar  857   8.750   8.824   7.040
    1   AR   Ar  858   8.764   9.562   7.921
    1   AR   Ar  859   9.735   8.818   7.465
    1   AR   Ar  860   9.593   9.833   7.076
    1   AR   Ar  861   8.757   8.929   8.814
    1   AR   Ar  862   8.660   9.840   9.666
    1   AR   Ar  863   9.799   9.047   9.731
    1   AR   Ar  864   9.748   9.818   8.289
   10.68000 10.68000 10.68000
