Argon-slab
  256
    1   AR   Ar    1   0.225   6.919   0.282
    1   AR   Ar    2   0.141   0.990   1.313
    1   AR   Ar    3   0.714   7.093   1.231
    1   AR   Ar    4   0.980   0.869  -0.260
    1   AR   Ar    5   0.011   0.173   2.027
    1   AR   Ar    6   0.233   1.012   2.559
    1   AR   Ar    7   1.000   0.029   2.392
    1   AR   Ar    8   1.226   0.921   1.722
    1   AR   Ar    9   0.381   0.130   3.595
    1   AR   Ar   10   6.761   1.012   4.652
    1   AR   Ar   11   0.793   7.084   4.542
    1   AR   Ar   12   0.894   1.024   3.551
    1   AR   Ar   13   7.119   6.971   5.221
    1   AR   Ar   14   0.086   1.133   5.990
    1   AR   Ar   15   0.515   0.069   6.139
    1   AR   Ar   16   0.890   0.826   5.154
    1   AR   Ar   17   7.014   1.970  -0.410
    1   AR   Ar   18   6.804   2.309   0.664
    1   AR   Ar   19   0.658   1.839   0.906
    1   AR   Ar   20   0.703   2.611   0.211
    1   AR   Ar   21   7.011   1.969   1.863
    1   AR   Ar   22   0.177   2.685   2.774
    1   AR   Ar   23   0.983   1.875   2.443
    1   AR   Ar   24   0.841   2.697   1.611
    1   AR   Ar   25   7.095   1.602   3.493
    1   AR   Ar   26   7.104   2.632   4.302
    1   AR   Ar   27   0.964   1.968   4.258
    1   AR   Ar   28   1.067   2.484   3.308
    1   AR   Ar   29   0.216   1.790   5.186
    1   AR   Ar   30   7.086   2.796   6.562
    1   AR   Ar   31   1.215   2.128   6.216
    1   AR   Ar   32   0.884   2.609   5.246
    1   AR   Ar   33   7.035   3.548   0.102
    1   AR   Ar   34   6.849   4.556   0.768
    1   AR   Ar   35   0.953   3.376   0.929
    1   AR   Ar   36   0.895   4.171   0.230
    1   AR   Ar   37   0.064   3.645   1.630
    1   AR   Ar   38   7.115   4.576   2.425
    1   AR   Ar   39   1.049   3.686   3.189
    1   AR   Ar   40   0.908   4.359   1.889
    1   AR   Ar   41   0.164   3.797   3.699
    1   AR   Ar   42   6.652   4.721   4.301
    1   AR   Ar   43   1.022   3.506   4.334
    1   AR   Ar   44   0.817   4.614   3.547
    1   AR   Ar   45   7.111   3.383   5.204
    1   AR   Ar   46   6.774   4.660   6.337
    1   AR   Ar   47   1.080   3.478   6.445
    1   AR   Ar   48   0.505   4.293   4.844
    1   AR   Ar   49   0.216   5.368  -0.009
    1   AR   Ar   50   7.049   6.125   0.928
    1   AR   Ar   51   0.745   5.369   1.104
    1   AR   Ar   52   1.027   6.232  -0.211
    1   AR   Ar   53   6.979   5.279   1.713
    1   AR   Ar   54   7.030   6.270   2.842
    1   AR   Ar   55   1.029   5.196   2.676
    1   AR   Ar   56   0.704   6.304   1.907
    1   AR   Ar   57   0.049   5.296   3.558
    1   AR   Ar   58   0.025   6.194   4.358
    1   AR   Ar   59   0.665   5.433   4.355
    1   AR   Ar   60   0.936   6.169   3.559
    1   AR   Ar   61   0.113   5.381   5.287
    1   AR   Ar   62   7.119   6.078   5.979
    1   AR   Ar   63   0.915   5.458   6.162
    1   AR   Ar   64   0.798   6.166   5.167
    1   AR   Ar   65   1.582   0.156   0.662
    1   AR   Ar   66   1.873   1.375   1.017
    1   AR   Ar   67   2.757   6.973   1.011
    1   AR   Ar   68   2.332   0.881   0.055
    1   AR   Ar   69   1.912   0.079   1.934
    1   AR   Ar   70   1.622   0.950   2.825
    1   AR   Ar   71   2.795   0.145   2.574
    1   AR   Ar   72   2.754   1.004   1.679
    1   AR   Ar   73   1.958   6.853   3.801
    1   AR   Ar   74   1.833   0.883   4.494
    1   AR   Ar   75   2.664   7.077   4.674
    1   AR   Ar   76   2.571   0.898   3.661
    1   AR   Ar   77   1.605   7.116   5.307
    1   AR   Ar   78   1.200   0.955   6.384
    1   AR   Ar   79   2.691   6.951   6.300
    1   AR   Ar   80   2.606   0.783   5.635
    1   AR   Ar   81   1.836   1.780  -0.023
    1   AR   Ar   82   1.870   2.815   0.922
    1   AR   Ar   83   2.652   2.015   0.951
    1   AR   Ar   84   2.304   2.768  -0.238
    1   AR   Ar   85   1.832   2.089   1.758
    1   AR   Ar   86   1.903   2.885   2.726
    1   AR   Ar   87   2.912   1.942   2.621
    1   AR   Ar   88   2.615   2.733   1.834
    1   AR   Ar   89   1.883   1.809   3.753
    1   AR   Ar   90   1.917   2.582   4.560
    1   AR   Ar   91   3.149   1.768   4.352
    1   AR   Ar   92   2.823   2.603   3.701
    1   AR   Ar   93   1.923   1.736   5.519
    1   AR   Ar   94   1.778   2.862   5.660
    1   AR   Ar   95   2.522   2.370   6.234
    1   AR   Ar   96   2.749   2.305   5.122
    1   AR   Ar   97   1.560   3.349  -0.075
    1   AR   Ar   98   1.564   4.593   1.139
    1   AR   Ar   99   2.676   3.575   0.974
    1   AR   Ar  100   2.432   4.608  -0.171
    1   AR   Ar  101   1.513   3.379   1.892
    1   AR   Ar  102   1.704   4.411   2.660
    1   AR   Ar  103   2.666   3.576   2.701
    1   AR   Ar  104   2.412   4.539   1.862
    1   AR   Ar  105   2.061   3.578   3.500
    1   AR   Ar  106   1.665   4.354   4.325
    1   AR   Ar  107   2.532   3.438   4.494
    1   AR   Ar  108   2.493   4.402   3.617
    1   AR   Ar  109   1.653   3.809   5.315
    1   AR   Ar  110   1.593   4.596   6.144
    1   AR   Ar  111   2.774   3.387   6.186
    1   AR   Ar  112   2.665   4.323   5.609
    1   AR   Ar  113   1.597   5.386   0.383
    1   AR   Ar  114   1.462   6.196   1.195
    1   AR   Ar  115   2.551   5.630   0.963
    1   AR   Ar  116   2.623   6.242   0.100
    1   AR   Ar  117   1.869   5.475   1.957
    1   AR   Ar  118   2.022   6.430   2.715
    1   AR   Ar  119   2.657   5.080   2.719
    1   AR   Ar  120   2.821   6.306   1.951
    1   AR   Ar  121   1.757   5.258   3.498
    1   AR   Ar  122   1.697   6.017   4.555
    1   AR   Ar  123   2.536   5.247   4.293
    1   AR   Ar  124   2.535   5.957   3.680
    1   AR   Ar  125   1.641   5.066   5.255
    1   AR   Ar  126   1.777   6.218   6.451
    1   AR   Ar  127   2.385   5.450   6.091
    1   AR   Ar  128   2.717   5.962   5.183
    1   AR   Ar  129   3.237   0.192   0.032
    1   AR   Ar  130   3.478   0.967   0.844
    1   AR   Ar  131   4.181   6.987   1.069
    1   AR   Ar  132   4.433   0.506   0.242
    1   AR   Ar  133   3.670   0.217   1.905
    1   AR   Ar  134   3.512   1.008   2.709
    1   AR   Ar  135   4.332   6.855   2.712
    1   AR   Ar  136   4.446   0.998   1.565
    1   AR   Ar  137   3.647   0.330   3.561
    1   AR   Ar  138   3.402   0.639   4.918
    1   AR   Ar  139   4.348   0.264   4.217
    1   AR   Ar  140   4.747   1.005   3.519
    1   AR   Ar  141   3.441   6.937   5.577
    1   AR   Ar  142   3.514   0.761   6.447
    1   AR   Ar  143   4.439   0.174   5.709
    1   AR   Ar  144   4.504   1.221   5.211
    1   AR   Ar  145   4.038   1.661   0.056
    1   AR   Ar  146   3.673   2.642   0.887
    1   AR   Ar  147   5.302   1.644   0.657
    1   AR   Ar  148   4.815   2.955   0.235
    1   AR   Ar  149   3.621   1.792   1.922
    1   AR   Ar  150   3.653   2.686   2.764
    1   AR   Ar  151   4.613   1.753   2.722
    1   AR   Ar  152   4.297   2.744   1.810
    1   AR   Ar  153   3.975   1.859   3.558
    1   AR   Ar  154   3.618   2.634   4.684
    1   AR   Ar  155   4.372   1.922   4.549
    1   AR   Ar  156   4.321   2.984   3.825
    1   AR   Ar  157   3.612   1.831   5.508
    1   AR   Ar  158   3.785   2.645   6.315
    1   AR   Ar  159   4.736   1.700   6.426
    1   AR   Ar  160   4.392   2.745   5.416
    1   AR   Ar  161   3.689   3.204  -0.157
    1   AR   Ar  162   3.683   4.364   0.440
    1   AR   Ar  163   4.456   3.749   0.891
    1   AR   Ar  164   4.621   4.591   0.064
    1   AR   Ar  165   3.514   3.525   1.771
    1   AR   Ar  166   3.569   4.402   2.746
    1   AR   Ar  167   4.253   3.482   2.627
    1   AR   Ar  168   4.326   4.446   1.853
    1   AR   Ar  169   3.475   3.637   3.692
    1   AR   Ar  170   3.639   4.429   4.436
    1   AR   Ar  171   5.008   3.668   4.327
    1   AR   Ar  172   4.747   4.611   3.958
    1   AR   Ar  173   3.776   3.659   5.547
    1   AR   Ar  174   3.974   4.658   5.840
    1   AR   Ar  175   4.648   3.683   6.485
    1   AR   Ar  176   4.565   4.451   5.039
    1   AR   Ar  177   3.404   5.423   0.174
    1   AR   Ar  178   3.504   6.125   1.203
    1   AR   Ar  179   4.462   5.290   0.855
    1   AR   Ar  180   4.167   6.242   0.249
    1   AR   Ar  181   3.345   5.181   1.799
    1   AR   Ar  182   3.330   6.476   2.930
    1   AR   Ar  183   4.196   5.508   2.653
    1   AR   Ar  184   4.376   6.294   1.805
    1   AR   Ar  185   3.665   5.176   3.532
    1   AR   Ar  186   3.531   6.061   4.090
    1   AR   Ar  187   4.328   5.524   4.324
    1   AR   Ar  188   4.503   6.315   3.602
    1   AR   Ar  189   3.717   5.324   5.047
    1   AR   Ar  190   3.298   5.975   6.252
    1   AR   Ar  191   4.974   5.281   6.408
    1   AR   Ar  192   4.347   6.340   5.099
    1   AR   Ar  193   5.266   6.894  -0.137
    1   AR   Ar  194   5.551   0.919   1.525
    1   AR   Ar  195   6.189   6.977   0.988
    1   AR   Ar  196   6.772   0.608   0.226
    1   AR   Ar  197   5.070   0.100   2.068
    1   AR   Ar  198   5.452   0.928   2.788
    1   AR   Ar  199   6.114   0.033   2.462
    1   AR   Ar  200   6.348   1.005   2.317
    1   AR   Ar  201   5.227   0.077   3.540
    1   AR   Ar  202   5.519   1.336   4.328
    1   AR   Ar  203   5.947   0.320   4.334
    1   AR   Ar  204   6.367   0.652   3.483
    1   AR   Ar  205   5.194   0.396   5.008
    1   AR   Ar  206   5.432   0.839   6.250
    1   AR   Ar  207   6.479   0.146   6.023
    1   AR   Ar  208   6.139   0.970   5.504
    1   AR   Ar  209   5.295   1.788  -0.327
    1   AR   Ar  210   5.172   2.746   1.305
    1   AR   Ar  211   6.116   1.954   1.241
    1   AR   Ar  212   6.165   2.978   0.043
    1   AR   Ar  213   5.474   1.727   2.124
    1   AR   Ar  214   5.438   2.565   2.715
    1   AR   Ar  215   6.522   2.045   2.711
    1   AR   Ar  216   6.289   2.746   1.869
    1   AR   Ar  217   5.117   2.018   3.720
    1   AR   Ar  218   5.273   2.648   4.490
    1   AR   Ar  219   6.325   1.927   4.554
    1   AR   Ar  220   6.017   2.551   3.532
    1   AR   Ar  221   5.497   1.849   5.333
    1   AR   Ar  222   5.308   2.652   6.329
    1   AR   Ar  223   6.376   1.813   6.086
    1   AR   Ar  224   6.401   2.514   5.318
    1   AR   Ar  225   5.491   3.874  -0.109
    1   AR   Ar  226   5.272   4.413   1.233
    1   AR   Ar  227   6.269   3.496   1.055
    1   AR   Ar  228   6.268   4.862  -0.290
    1   AR   Ar  229   5.042   3.514   1.846
    1   AR   Ar  230   4.883   4.651   2.866
    1   AR   Ar  231   6.340   3.635   2.645
    1   AR   Ar  232   5.832   4.400   2.008
    1   AR   Ar  233   5.572   3.615   3.367
    1   AR   Ar  234   5.664   4.539   4.496
    1   AR   Ar  235   6.203   3.721   4.351
    1   AR   Ar  236   6.012   4.564   3.531
    1   AR   Ar  237   5.370   3.320   5.483
    1   AR   Ar  238   5.446   4.262   5.507
    1   AR   Ar  239   6.497   3.572   6.100
    1   AR   Ar  240   6.556   4.515   5.274
    1   AR   Ar  241   5.194   5.827   0.102
    1   AR   Ar  242   5.273   6.500   1.067
    1   AR   Ar  243   6.186   5.313   0.994
    1   AR   Ar  244   6.592   6.104   0.082
    1   AR   Ar  245   5.161   5.376   1.840
    1   AR   Ar  246   5.351   6.114   3.041
    1   AR   Ar  247   6.086   5.097   2.662
    1   AR   Ar  248   6.588   6.366   1.872
    1   AR   Ar  249   5.343   5.529   4.008
    1   AR   Ar  250   5.389   6.465   4.744
    1   AR   Ar  251   6.302   5.532   4.898
    1   AR   Ar  252   6.210   6.285   3.889
    1   AR   Ar  253   5.359   5.317   5.123
    1   AR   Ar  254   5.297   6.320   5.887
    1   AR   Ar  255   6.127   5.537   6.212
    1   AR   Ar  256   6.301   6.408   5.395
    7.12000  7.12000 12.00000
