Argon-bulk
  864
    1   AR   Ar    1   0.048  10.491   0.081
    1   AR   Ar    2  10.552   1.159   0.749
    1   AR   Ar    3   0.860   0.024   0.764
    1   AR   Ar    4   0.708   0.824   0.008
    1   AR   Ar    5   0.021   0.383   1.509
    1   AR   Ar    6  10.479   0.879   2.451
    1   AR   Ar    7   0.633   0.160   2.727
    1   AR   Ar    8   1.188   0.859   1.740
    1   AR   Ar    9  10.602  10.474   3.519
    1   AR   Ar   10   0.179   0.994   4.542
    1   AR   Ar   11   0.389  10.405   4.649
    1   AR   Ar   12   1.131   1.204   3.029
    1   AR   Ar   13  10.505  10.676   5.382
    1   AR   Ar   14  10.284   1.043   5.917
    1   AR   Ar   15   0.573   0.378   6.133
    1   AR   Ar   16   1.310   1.109   5.349
    1   AR   Ar   17  10.246   0.202   7.118
    1   AR   Ar   18   0.116   1.095   8.337
    1   AR   Ar   19   0.770  10.662   7.941
    1   AR   Ar   20   0.451   0.888   7.345
    1   AR   Ar   21   0.143  10.491   8.803
    1   AR   Ar   22   0.156   0.979   9.771
    1   AR   Ar   23   0.922  10.660   9.616
    1   AR   Ar   24   0.957   0.687   8.915
    1   AR   Ar   25  10.618   1.765  10.560
    1   AR   Ar   26   0.168   2.746   0.756
    1   AR   Ar   27   0.863   1.685   0.947
    1   AR   Ar   28   1.007   2.775   0.046
    1   AR   Ar   29  10.332   1.879   1.611
    1   AR   Ar   30   0.139   2.812   2.776
    1   AR   Ar   31   0.531   1.808   2.327
    1   AR   Ar   32   0.757   2.677   1.710
    1   AR   Ar   33   0.093   1.817   3.646
    1   AR   Ar   34   0.134   2.727   4.485
    1   AR   Ar   35   0.951   1.958   4.594
    1   AR   Ar   36   0.912   2.689   3.683
    1   AR   Ar   37  10.141   1.725   5.115
    1   AR   Ar   38   0.092   2.637   6.305
    1   AR   Ar   39   0.866   1.570   6.218
    1   AR   Ar   40   0.963   2.748   5.628
    1   AR   Ar   41   0.011   1.747   6.914
    1   AR   Ar   42  10.584   2.757   7.735
    1   AR   Ar   43   1.141   1.754   8.050
    1   AR   Ar   44   0.849   2.614   7.110
    1   AR   Ar   45   0.392   1.862   8.919
    1   AR   Ar   46   0.158   3.000   9.840
    1   AR   Ar   47   0.922   1.781   9.772
    1   AR   Ar   48   0.873   3.037   9.006
    1   AR   Ar   49   0.366   3.889  10.555
    1   AR   Ar   50   0.301   4.371   0.802
    1   AR   Ar   51   1.109   3.602   1.155
    1   AR   Ar   52   1.165   4.765  10.652
    1   AR   Ar   53   0.203   3.778   1.600
    1   AR   Ar   54   0.150   4.181   2.627
    1   AR   Ar   55   1.058   3.320   2.804
    1   AR   Ar   56   0.896   4.490   1.862
    1   AR   Ar   57  10.614   3.516   3.657
    1   AR   Ar   58   0.244   4.447   4.291
    1   AR   Ar   59   1.017   3.599   4.480
    1   AR   Ar   60   0.946   4.170   3.568
    1   AR   Ar   61   0.086   3.698   5.520
    1   AR   Ar   62  10.653   4.636   6.443
    1   AR   Ar   63   1.015   3.553   6.359
    1   AR   Ar   64   0.980   4.438   5.086
    1   AR   Ar   65  10.452   3.607   7.281
    1   AR   Ar   66  10.518   4.499   8.037
    1   AR   Ar   67   0.759   3.354   7.859
    1   AR   Ar   68   0.722   4.324   7.460
    1   AR   Ar   69  10.578   3.675   8.742
    1   AR   Ar   70   0.305   4.352   9.672
    1   AR   Ar   71   1.263   3.887   9.761
    1   AR   Ar   72   0.817   4.419   8.514
    1   AR   Ar   73   0.098   5.372   0.089
    1   AR   Ar   74  10.618   6.113   0.912
    1   AR   Ar   75   0.939   5.428   0.945
    1   AR   Ar   76   0.838   5.987  10.335
    1   AR   Ar   77   0.027   5.193   2.080
    1   AR   Ar   78   0.024   5.994   2.953
    1   AR   Ar   79   0.857   5.010   2.865
    1   AR   Ar   80   0.856   6.186   2.009
    1   AR   Ar   81   0.063   5.415   3.760
    1   AR   Ar   82  10.411   6.206   4.246
    1   AR   Ar   83   0.970   5.239   4.340
    1   AR   Ar   84   1.028   6.223   3.703
    1   AR   Ar   85  10.525   5.436   5.821
    1   AR   Ar   86  10.632   6.305   6.370
    1   AR   Ar   87   1.340   4.822   6.030
    1   AR   Ar   88   0.591   5.962   5.075
    1   AR   Ar   89  10.395   5.428   7.082
    1   AR   Ar   90   0.210   6.230   7.901
    1   AR   Ar   91   0.801   5.342   7.562
    1   AR   Ar   92   0.634   6.495   7.067
    1   AR   Ar   93  10.658   5.174   8.806
    1   AR   Ar   94  10.494   5.832   9.955
    1   AR   Ar   95   0.789   5.234   9.649
    1   AR   Ar   96   0.483   6.164   9.226
    1   AR   Ar   97   0.201   7.007   0.173
    1   AR   Ar   98   0.239   8.191   0.995
    1   AR   Ar   99   0.743   6.901   1.092
    1   AR   Ar  100   0.811   7.946  10.470
    1   AR   Ar  101  10.665   6.888   2.072
    1   AR   Ar  102  10.291   7.865   2.689
    1   AR   Ar  103   0.804   6.920   2.929
    1   AR   Ar  104   0.598   7.747   1.858
    1   AR   Ar  105   0.056   7.197   3.638
    1   AR   Ar  106  10.615   7.956   4.664
    1   AR   Ar  107   0.865   7.072   4.640
    1   AR   Ar  108   0.957   8.037   3.072
    1   AR   Ar  109  10.642   7.003   5.518
    1   AR   Ar  110  10.116   7.923   5.793
    1   AR   Ar  111   0.803   7.287   6.416
    1   AR   Ar  112   0.846   8.063   5.438
    1   AR   Ar  113  10.601   7.259   6.979
    1   AR   Ar  114   0.001   8.013   7.803
    1   AR   Ar  115   1.109   7.060   7.941
    1   AR   Ar  116   0.821   7.940   7.216
    1   AR   Ar  117   0.155   6.969   8.684
    1   AR   Ar  118   0.149   8.026   9.588
    1   AR   Ar  119   0.798   7.193   9.626
    1   AR   Ar  120   0.976   7.975   8.714
    1   AR   Ar  121   0.078   9.174  10.533
    1   AR   Ar  122  10.438   9.843   1.004
    1   AR   Ar  123   0.772   9.106   0.884
    1   AR   Ar  124   1.161   9.811  10.557
    1   AR   Ar  125  10.425   8.712   1.869
    1   AR   Ar  126  10.479   9.573   2.848
    1   AR   Ar  127   0.734   9.086   2.261
    1   AR   Ar  128   0.900  10.037   1.714
    1   AR   Ar  129  10.640   8.854   3.796
    1   AR   Ar  130  10.420   9.691   4.441
    1   AR   Ar  131   1.004   9.110   4.359
    1   AR   Ar  132   0.812   9.965   3.489
    1   AR   Ar  133  10.484   8.921   5.054
    1   AR   Ar  134  10.599  10.076   6.425
    1   AR   Ar  135   0.892   9.020   6.221
    1   AR   Ar  136   0.468   9.984   5.614
    1   AR   Ar  137   0.143   8.865   7.025
    1   AR   Ar  138   0.226   9.808   7.899
    1   AR   Ar  139   0.997   8.797   7.996
    1   AR   Ar  140   0.863   9.866   6.953
    1   AR   Ar  141   0.453   9.144   8.863
    1   AR   Ar  142   0.289   9.916   9.738
    1   AR   Ar  143   1.137   8.771   9.678
    1   AR   Ar  144   1.387  10.109   8.842
    1   AR   Ar  145   1.907  10.666   0.219
    1   AR   Ar  146   1.500   0.762   0.691
    1   AR   Ar  147   2.903  10.328   0.887
    1   AR   Ar  148   2.704   0.885   0.018
    1   AR   Ar  149   2.043  10.550   1.616
    1   AR   Ar  150   1.979   0.605   2.633
    1   AR   Ar  151   2.601  10.354   2.655
    1   AR   Ar  152   2.617   1.385   1.803
    1   AR   Ar  153   1.630  10.551   3.318
    1   AR   Ar  154   1.254   0.232   4.241
    1   AR   Ar  155   2.744   0.128   4.441
    1   AR   Ar  156   2.745   0.932   3.746
    1   AR   Ar  157   1.653   0.135   5.266
    1   AR   Ar  158   1.553   0.811   6.277
    1   AR   Ar  159   2.434   0.012   6.498
    1   AR   Ar  160   2.448   0.751   5.768
    1   AR   Ar  161   1.465   0.068   7.151
    1   AR   Ar  162   1.732   0.553   8.263
    1   AR   Ar  163   2.668  10.645   8.035
    1   AR   Ar  164   2.249   0.882   6.986
    1   AR   Ar  165   2.106   0.419   9.260
    1   AR   Ar  166   1.483   0.919   9.812
    1   AR   Ar  167   3.016  10.612   9.957
    1   AR   Ar  168   3.016   0.577   8.901
    1   AR   Ar  169   1.739   1.719   0.141
    1   AR   Ar  170   1.748   2.697   0.939
    1   AR   Ar  171   2.700   1.824   0.818
    1   AR   Ar  172   2.699   2.978   0.084
    1   AR   Ar  173   1.581   2.001   1.858
    1   AR   Ar  174   1.609   2.131   2.968
    1   AR   Ar  175   2.644   1.597   2.833
    1   AR   Ar  176   2.582   2.475   1.989
    1   AR   Ar  177   1.796   1.332   4.181
    1   AR   Ar  178   2.036   2.717   4.427
    1   AR   Ar  179   2.729   1.857   4.417
    1   AR   Ar  180   2.660   2.554   3.560
    1   AR   Ar  181   2.094   2.053   5.494
    1   AR   Ar  182   2.129   3.099   5.974
    1   AR   Ar  183   2.791   2.205   6.227
    1   AR   Ar  184   2.974   3.052   5.384
    1   AR   Ar  185   1.788   2.024   6.822
    1   AR   Ar  186   1.775   2.793   7.765
    1   AR   Ar  187   2.489   1.659   7.840
    1   AR   Ar  188   2.967   2.782   7.350
    1   AR   Ar  189   2.054   1.592   8.778
    1   AR   Ar  190   2.075   2.508  10.146
    1   AR   Ar  191   2.855   1.628   9.781
    1   AR   Ar  192   2.332   2.655   9.039
    1   AR   Ar  193   1.885   3.478   0.185
    1   AR   Ar  194   1.722   4.586   0.952
    1   AR   Ar  195   2.612   3.424   1.191
    1   AR   Ar  196   2.634   4.376  10.391
    1   AR   Ar  197   1.816   3.267   1.853
    1   AR   Ar  198   1.713   4.238   2.634
    1   AR   Ar  199   3.008   3.641   2.497
    1   AR   Ar  200   2.373   4.576   1.816
    1   AR   Ar  201   1.910   3.310   3.457
    1   AR   Ar  202   1.827   4.355   4.334
    1   AR   Ar  203   2.721   3.868   4.291
    1   AR   Ar  204   3.002   4.538   3.527
    1   AR   Ar  205   1.851   3.796   5.221
    1   AR   Ar  206   2.381   4.274   6.154
    1   AR   Ar  207   3.114   3.313   6.428
    1   AR   Ar  208   2.790   4.504   5.206
    1   AR   Ar  209   1.746   3.815   7.112
    1   AR   Ar  210   1.874   4.555   8.003
    1   AR   Ar  211   2.848   3.657   8.295
    1   AR   Ar  212   2.865   4.326   7.247
    1   AR   Ar  213   1.809   3.675   8.797
    1   AR   Ar  214   1.915   4.792   9.452
    1   AR   Ar  215   2.776   3.535   9.635
    1   AR   Ar  216   2.725   4.604   8.777
    1   AR   Ar  217   1.942   5.394   0.172
    1   AR   Ar  218   2.047   6.155   0.851
    1   AR   Ar  219   2.692   4.836   0.639
    1   AR   Ar  220   2.676   6.416  10.598
    1   AR   Ar  221   1.792   5.513   1.726
    1   AR   Ar  222   1.661   6.225   2.812
    1   AR   Ar  223   2.567   5.355   2.650
    1   AR   Ar  224   2.465   6.237   2.124
    1   AR   Ar  225   1.937   5.365   3.517
    1   AR   Ar  226   1.606   6.198   4.524
    1   AR   Ar  227   2.969   5.633   4.084
    1   AR   Ar  228   2.562   6.345   3.370
    1   AR   Ar  229   1.985   5.253   4.709
    1   AR   Ar  230   1.564   6.429   6.503
    1   AR   Ar  231   2.902   5.100   6.018
    1   AR   Ar  232   2.763   6.342   5.166
    1   AR   Ar  233   2.123   5.249   6.930
    1   AR   Ar  234   1.672   6.163   7.735
    1   AR   Ar  235   2.979   5.262   7.930
    1   AR   Ar  236   2.641   6.124   7.139
    1   AR   Ar  237   1.673   5.519   8.623
    1   AR   Ar  238   1.798   5.951   9.562
    1   AR   Ar  239   2.593   5.366   9.956
    1   AR   Ar  240   2.572   6.159   8.955
    1   AR   Ar  241   1.739   7.042   0.240
    1   AR   Ar  242   1.906   8.097   0.935
    1   AR   Ar  243   2.811   6.948   1.123
    1   AR   Ar  244   2.782   7.972   0.382
    1   AR   Ar  245   1.754   7.019   1.933
    1   AR   Ar  246   2.108   7.532   2.685
    1   AR   Ar  247   3.076   7.128   2.331
    1   AR   Ar  248   3.036   7.958   1.575
    1   AR   Ar  249   1.590   7.125   3.676
    1   AR   Ar  250   2.199   7.976   4.551
    1   AR   Ar  251   2.916   7.040   4.387
    1   AR   Ar  252   2.630   7.699   3.550
    1   AR   Ar  253   1.822   7.155   5.450
    1   AR   Ar  254   1.616   7.886   6.390
    1   AR   Ar  255   2.512   7.298   6.198
    1   AR   Ar  256   2.751   7.814   5.402
    1   AR   Ar  257   1.856   7.218   7.218
    1   AR   Ar  258   1.841   8.008   7.937
    1   AR   Ar  259   2.668   7.060   7.883
    1   AR   Ar  260   3.129   8.115   6.945
    1   AR   Ar  261   1.991   7.361   8.731
    1   AR   Ar  262   2.139   7.970   9.845
    1   AR   Ar  263   2.933   7.034   9.784
    1   AR   Ar  264   2.880   7.952   8.760
    1   AR   Ar  265   1.792   8.936  10.485
    1   AR   Ar  266   1.653   9.798   0.763
    1   AR   Ar  267   2.555   8.979   0.781
    1   AR   Ar  268   2.446   9.871  10.587
    1   AR   Ar  269   1.311   8.485   1.713
    1   AR   Ar  270   1.681   9.686   2.431
    1   AR   Ar  271   2.578   9.340   2.865
    1   AR   Ar  272   2.727   9.672   1.777
    1   AR   Ar  273   1.575   9.012   3.446
    1   AR   Ar  274   1.921   9.799   4.707
    1   AR   Ar  275   2.661   9.112   4.458
    1   AR   Ar  276   2.642   9.946   3.714
    1   AR   Ar  277   1.875   9.047   5.402
    1   AR   Ar  278   1.424  10.306   6.216
    1   AR   Ar  279   2.974   8.724   6.109
    1   AR   Ar  280   3.024   9.954   5.149
    1   AR   Ar  281   1.617   9.209   7.188
    1   AR   Ar  282   1.873   9.825   7.884
    1   AR   Ar  283   2.761   9.058   8.316
    1   AR   Ar  284   2.720   9.655   7.065
    1   AR   Ar  285   1.828   9.012   8.781
    1   AR   Ar  286   1.869  10.030   9.758
    1   AR   Ar  287   2.707   8.953   9.707
    1   AR   Ar  288   2.709  10.214   9.102
    1   AR   Ar  289   3.544   0.060   0.171
    1   AR   Ar  290   3.616   0.917   0.893
    1   AR   Ar  291   4.630  10.458   0.697
    1   AR   Ar  292   4.516   1.090   0.012
    1   AR   Ar  293   3.021   0.154   1.808
    1   AR   Ar  294   3.477   1.084   2.391
    1   AR   Ar  295   4.292   0.147   2.456
    1   AR   Ar  296   4.278   1.102   1.667
    1   AR   Ar  297   3.452  10.604   3.299
    1   AR   Ar  298   3.647   0.773   4.299
    1   AR   Ar  299   4.628  10.627   4.360
    1   AR   Ar  300   4.371   0.801   3.585
    1   AR   Ar  301   3.413   0.199   5.337
    1   AR   Ar  302   3.586   1.002   6.406
    1   AR   Ar  303   4.377  10.409   6.159
    1   AR   Ar  304   4.595   0.817   5.808
    1   AR   Ar  305   3.394  10.540   6.998
    1   AR   Ar  306   3.688   0.543   7.938
    1   AR   Ar  307   4.542  10.395   7.976
    1   AR   Ar  308   4.631   0.423   6.978
    1   AR   Ar  309   3.945   0.131   8.868
    1   AR   Ar  310   3.619   0.894   9.934
    1   AR   Ar  311   4.453   0.192  10.175
    1   AR   Ar  312   4.233   1.321   9.162
    1   AR   Ar  313   3.480   1.888  10.562
    1   AR   Ar  314   3.313   2.608   0.916
    1   AR   Ar  315   4.096   1.784   0.733
    1   AR   Ar  316   4.421   2.614   0.028
    1   AR   Ar  317   3.563   1.888   1.629
    1   AR   Ar  318   3.547   2.819   2.593
    1   AR   Ar  319   4.431   1.898   2.601
    1   AR   Ar  320   4.598   2.523   1.789
    1   AR   Ar  321   3.661   1.645   3.490
    1   AR   Ar  322   3.513   2.797   4.430
    1   AR   Ar  323   4.205   1.667   4.579
    1   AR   Ar  324   4.301   2.581   3.600
    1   AR   Ar  325   3.286   1.755   5.271
    1   AR   Ar  326   3.900   2.595   6.621
    1   AR   Ar  327   4.821   1.672   6.427
    1   AR   Ar  328   3.968   2.510   5.563
    1   AR   Ar  329   3.386   1.907   7.142
    1   AR   Ar  330   3.716   2.589   8.002
    1   AR   Ar  331   4.728   1.688   8.184
    1   AR   Ar  332   4.606   2.470   7.514
    1   AR   Ar  333   3.342   1.882   8.541
    1   AR   Ar  334   3.343   2.747   9.869
    1   AR   Ar  335   4.646   1.752  10.032
    1   AR   Ar  336   4.391   2.672   8.965
    1   AR   Ar  337   3.571   3.414  10.632
    1   AR   Ar  338   3.990   4.300   0.911
    1   AR   Ar  339   4.285   3.155   0.834
    1   AR   Ar  340   4.650   4.507   0.061
    1   AR   Ar  341   3.776   3.497   1.780
    1   AR   Ar  342   3.579   4.701   2.763
    1   AR   Ar  343   4.360   3.918   2.688
    1   AR   Ar  344   4.294   4.701   1.782
    1   AR   Ar  345   3.677   3.660   3.662
    1   AR   Ar  346   3.923   4.680   4.383
    1   AR   Ar  347   4.596   3.433   4.242
    1   AR   Ar  348   4.731   4.462   3.562
    1   AR   Ar  349   3.822   3.811   5.186
    1   AR   Ar  350   3.644   4.449   6.484
    1   AR   Ar  351   4.298   3.511   6.134
    1   AR   Ar  352   4.353   4.771   5.338
    1   AR   Ar  353   3.800   3.569   7.192
    1   AR   Ar  354   3.578   4.450   8.148
    1   AR   Ar  355   4.669   3.295   8.059
    1   AR   Ar  356   4.348   4.460   7.245
    1   AR   Ar  357   3.741   3.579   9.042
    1   AR   Ar  358   3.378   4.387   9.659
    1   AR   Ar  359   4.380   3.409   9.850
    1   AR   Ar  360   4.434   4.685   9.002
    1   AR   Ar  361   3.345   5.299  10.651
    1   AR   Ar  362   3.696   6.224   0.904
    1   AR   Ar  363   4.404   5.445   0.885
    1   AR   Ar  364   4.406   6.353   0.070
    1   AR   Ar  365   3.427   5.263   1.768
    1   AR   Ar  366   3.505   6.254   2.675
    1   AR   Ar  367   4.510   5.378   2.737
    1   AR   Ar  368   4.326   6.168   1.730
    1   AR   Ar  369   3.729   5.547   3.474
    1   AR   Ar  370   3.741   6.190   4.524
    1   AR   Ar  371   4.434   5.524   4.188
    1   AR   Ar  372   4.543   6.336   3.531
    1   AR   Ar  373   3.409   5.437   5.237
    1   AR   Ar  374   3.462   6.190   6.386
    1   AR   Ar  375   4.361   5.449   6.268
    1   AR   Ar  376   4.367   5.960   5.275
    1   AR   Ar  377   3.310   5.270   6.954
    1   AR   Ar  378   3.596   6.388   7.938
    1   AR   Ar  379   4.357   5.456   7.831
    1   AR   Ar  380   4.366   6.434   7.136
    1   AR   Ar  381   3.517   5.269   8.958
    1   AR   Ar  382   3.430   6.211   9.880
    1   AR   Ar  383   4.232   5.262  10.055
    1   AR   Ar  384   4.327   6.010   8.996
    1   AR   Ar  385   3.704   7.347  10.665
    1   AR   Ar  386   3.922   7.990   0.862
    1   AR   Ar  387   4.521   7.132   0.873
    1   AR   Ar  388   4.707   7.816   0.048
    1   AR   Ar  389   3.837   7.155   1.730
    1   AR   Ar  390   3.384   8.090   2.569
    1   AR   Ar  391   4.226   7.044   2.667
    1   AR   Ar  392   4.777   7.830   1.960
    1   AR   Ar  393   3.662   6.917   3.515
    1   AR   Ar  394   3.523   7.889   4.331
    1   AR   Ar  395   4.454   7.175   4.591
    1   AR   Ar  396   4.253   7.888   3.475
    1   AR   Ar  397   3.499   6.958   5.498
    1   AR   Ar  398   3.865   8.043   6.065
    1   AR   Ar  399   4.574   6.765   5.825
    1   AR   Ar  400   4.266   8.085   5.067
    1   AR   Ar  401   3.170   6.990   7.002
    1   AR   Ar  402   3.579   7.758   7.851
    1   AR   Ar  403   4.628   7.211   7.787
    1   AR   Ar  404   4.570   8.029   7.185
    1   AR   Ar  405   3.785   7.195   8.914
    1   AR   Ar  406   3.451   8.070   9.631
    1   AR   Ar  407   4.373   7.442   9.728
    1   AR   Ar  408   4.338   8.109   8.667
    1   AR   Ar  409   3.609   8.571  10.604
    1   AR   Ar  410   3.652   9.652   0.920
    1   AR   Ar  411   4.650   9.119   0.856
    1   AR   Ar  412   4.258   9.677  10.646
    1   AR   Ar  413   3.803   8.812   1.520
    1   AR   Ar  414   3.828   9.956   2.604
    1   AR   Ar  415   4.652   8.978   2.516
    1   AR   Ar  416   4.389   9.682   1.719
    1   AR   Ar  417   3.644   8.904   3.348
    1   AR   Ar  418   3.580   9.739   4.252
    1   AR   Ar  419   4.458   8.922   4.131
    1   AR   Ar  420   4.576   9.710   3.348
    1   AR   Ar  421   3.510   8.975   5.133
    1   AR   Ar  422   3.486   9.903   6.040
    1   AR   Ar  423   4.423   8.790   6.370
    1   AR   Ar  424   4.365   9.693   4.897
    1   AR   Ar  425   3.617   8.964   7.052
    1   AR   Ar  426   3.498   9.865   8.299
    1   AR   Ar  427   4.285   8.976   8.029
    1   AR   Ar  428   4.285   9.810   7.174
    1   AR   Ar  429   3.501   9.024   8.993
    1   AR   Ar  430   3.381   9.691   9.896
    1   AR   Ar  431   4.468   8.700   9.938
    1   AR   Ar  432   4.290   9.664   9.158
    1   AR   Ar  433   5.428  10.607   0.154
    1   AR   Ar  434   5.309   0.788   0.798
    1   AR   Ar  435   6.433  10.513   0.837
    1   AR   Ar  436   6.007   0.903   0.117
    1   AR   Ar  437   5.310   0.068   1.666
    1   AR   Ar  438   5.267   1.070   2.772
    1   AR   Ar  439   6.260  10.616   2.666
    1   AR   Ar  440   6.146   0.861   1.927
    1   AR   Ar  441   5.335   0.197   3.470
    1   AR   Ar  442   5.409   0.826   4.437
    1   AR   Ar  443   6.217   0.028   4.394
    1   AR   Ar  444   6.252   0.743   3.453
    1   AR   Ar  445   5.511  10.368   5.502
    1   AR   Ar  446   5.546   0.920   6.477
    1   AR   Ar  447   6.261  10.680   6.458
    1   AR   Ar  448   6.031   0.603   5.509
    1   AR   Ar  449   5.364  10.406   7.095
    1   AR   Ar  450   5.262   0.460   7.910
    1   AR   Ar  451   6.381   0.167   7.936
    1   AR   Ar  452   6.194   1.097   7.438
    1   AR   Ar  453   5.128  10.651   8.949
    1   AR   Ar  454   5.246   0.821   9.626
    1   AR   Ar  455   6.288   0.281   9.716
    1   AR   Ar  456   6.046   0.895   8.807
    1   AR   Ar  457   5.323   1.670   0.194
    1   AR   Ar  458   5.536   2.543   0.742
    1   AR   Ar  459   6.242   1.685   0.869
    1   AR   Ar  460   6.337   2.329  10.553
    1   AR   Ar  461   5.371   1.596   1.900
    1   AR   Ar  462   5.234   2.613   2.742
    1   AR   Ar  463   6.256   1.916   2.496
    1   AR   Ar  464   6.053   2.740   1.801
    1   AR   Ar  465   5.147   1.603   3.763
    1   AR   Ar  466   5.252   2.598   4.632
    1   AR   Ar  467   5.989   1.835   4.619
    1   AR   Ar  468   5.794   2.475   3.670
    1   AR   Ar  469   5.450   1.703   5.580
    1   AR   Ar  470   5.091   2.672   6.236
    1   AR   Ar  471   6.196   1.812   6.433
    1   AR   Ar  472   6.218   2.617   5.524
    1   AR   Ar  473   5.438   1.767   7.295
    1   AR   Ar  474   5.500   2.819   7.935
    1   AR   Ar  475   6.197   1.909   8.255
    1   AR   Ar  476   6.214   2.611   7.088
    1   AR   Ar  477   5.408   1.878   8.970
    1   AR   Ar  478   5.629   2.409   9.916
    1   AR   Ar  479   6.440   1.498   9.806
    1   AR   Ar  480   5.951   2.930   9.068
    1   AR   Ar  481   5.051   3.642   0.461
    1   AR   Ar  482   5.052   4.501   1.058
    1   AR   Ar  483   6.188   3.368   0.811
    1   AR   Ar  484   5.969   4.367   0.413
    1   AR   Ar  485   4.923   3.672   1.816
    1   AR   Ar  486   5.193   4.663   2.271
    1   AR   Ar  487   5.867   3.567   2.519
    1   AR   Ar  488   5.981   4.293   1.697
    1   AR   Ar  489   5.218   3.481   3.377
    1   AR   Ar  490   5.176   4.401   4.512
    1   AR   Ar  491   6.304   3.438   4.485
    1   AR   Ar  492   6.044   4.283   3.740
    1   AR   Ar  493   5.463   3.825   5.309
    1   AR   Ar  494   5.392   4.403   6.273
    1   AR   Ar  495   6.336   3.640   5.768
    1   AR   Ar  496   6.189   4.745   5.168
    1   AR   Ar  497   4.923   3.518   6.955
    1   AR   Ar  498   5.040   4.515   8.090
    1   AR   Ar  499   5.860   3.884   7.846
    1   AR   Ar  500   6.298   4.060   6.851
    1   AR   Ar  501   5.234   3.698   9.057
    1   AR   Ar  502   5.400   4.083  10.116
    1   AR   Ar  503   6.287   3.517   9.954
    1   AR   Ar  504   5.909   4.537   9.017
    1   AR   Ar  505   5.494   5.341  10.551
    1   AR   Ar  506   5.666   6.264   0.961
    1   AR   Ar  507   6.577   5.229   0.733
    1   AR   Ar  508   6.266   6.190  10.405
    1   AR   Ar  509   5.274   5.565   1.728
    1   AR   Ar  510   5.394   6.102   2.887
    1   AR   Ar  511   6.098   5.153   2.561
    1   AR   Ar  512   6.110   6.220   1.909
    1   AR   Ar  513   5.417   5.324   3.571
    1   AR   Ar  514   5.350   6.414   4.166
    1   AR   Ar  515   6.093   5.373   4.365
    1   AR   Ar  516   6.360   6.318   3.523
    1   AR   Ar  517   5.357   5.234   5.475
    1   AR   Ar  518   5.369   5.787   6.335
    1   AR   Ar  519   6.348   5.155   6.536
    1   AR   Ar  520   5.852   6.268   5.266
    1   AR   Ar  521   5.347   5.051   7.107
    1   AR   Ar  522   5.164   6.175   7.769
    1   AR   Ar  523   6.184   5.461   8.118
    1   AR   Ar  524   6.046   6.291   7.167
    1   AR   Ar  525   5.363   5.453   8.868
    1   AR   Ar  526   5.285   5.980   9.717
    1   AR   Ar  527   6.284   5.456   9.493
    1   AR   Ar  528   6.000   6.321   8.873
    1   AR   Ar  529   5.413   6.851  10.637
    1   AR   Ar  530   5.112   8.166   1.083
    1   AR   Ar  531   6.323   7.000   0.586
    1   AR   Ar  532   6.231   8.074   0.089
    1   AR   Ar  533   5.256   6.881   1.868
    1   AR   Ar  534   5.482   8.079   2.781
    1   AR   Ar  535   6.271   7.014   2.733
    1   AR   Ar  536   6.075   7.792   1.970
    1   AR   Ar  537   5.485   7.120   3.392
    1   AR   Ar  538   5.306   7.812   4.400
    1   AR   Ar  539   6.286   6.994   4.304
    1   AR   Ar  540   6.167   7.915   3.841
    1   AR   Ar  541   5.430   7.198   5.198
    1   AR   Ar  542   5.472   8.362   5.892
    1   AR   Ar  543   5.757   6.951   6.199
    1   AR   Ar  544   6.145   7.989   5.204
    1   AR   Ar  545   5.246   6.951   7.011
    1   AR   Ar  546   5.166   8.159   8.024
    1   AR   Ar  547   6.111   7.086   7.848
    1   AR   Ar  548   6.432   8.135   7.096
    1   AR   Ar  549   5.167   7.333   8.924
    1   AR   Ar  550   5.342   7.984   9.858
    1   AR   Ar  551   5.797   6.985   9.645
    1   AR   Ar  552   5.849   8.201   8.938
    1   AR   Ar  553   5.241   8.949  10.654
    1   AR   Ar  554   5.589   9.849   1.086
    1   AR   Ar  555   6.397   8.244   1.078
    1   AR   Ar  556   6.107   9.513   0.276
    1   AR   Ar  557   5.650   8.794   1.772
    1   AR   Ar  558   5.229   9.892   2.542
    1   AR   Ar  559   6.519   8.975   2.698
    1   AR   Ar  560   6.204   9.966   1.936
    1   AR   Ar  561   5.630   8.838   3.660
    1   AR   Ar  562   5.426   9.904   4.044
    1   AR   Ar  563   6.523   9.077   4.658
    1   AR   Ar  564   6.429   9.563   3.659
    1   AR   Ar  565   5.312   8.983   4.847
    1   AR   Ar  566   5.318   9.545   6.244
    1   AR   Ar  567   6.585   8.974   6.446
    1   AR   Ar  568   6.325   9.740   5.477
    1   AR   Ar  569   5.332   8.697   7.019
    1   AR   Ar  570   5.324   9.676   7.915
    1   AR   Ar  571   6.058   8.884   7.766
    1   AR   Ar  572   6.515   9.892   7.303
    1   AR   Ar  573   4.986   9.019   8.791
    1   AR   Ar  574   5.827  10.036   9.620
    1   AR   Ar  575   5.971   8.961   9.934
    1   AR   Ar  576   6.357  10.022   8.649
    1   AR   Ar  577   6.851  10.511  10.447
    1   AR   Ar  578   6.998   0.756   0.936
    1   AR   Ar  579   8.179   0.079   1.121
    1   AR   Ar  580   8.117   0.720  10.638
    1   AR   Ar  581   7.094  10.550   1.802
    1   AR   Ar  582   7.104   0.586   2.637
    1   AR   Ar  583   8.015   0.037   2.703
    1   AR   Ar  584   8.098   1.081   1.789
    1   AR   Ar  585   6.970   0.090   3.645
    1   AR   Ar  586   6.915   0.956   4.270
    1   AR   Ar  587   8.279   0.093   4.520
    1   AR   Ar  588   7.797   0.873   3.562
    1   AR   Ar  589   6.808  10.649   5.412
    1   AR   Ar  590   6.768   0.939   6.347
    1   AR   Ar  591   8.102   0.108   6.193
    1   AR   Ar  592   8.234   0.963   5.177
    1   AR   Ar  593   7.144   0.203   7.174
    1   AR   Ar  594   7.142   0.958   8.062
    1   AR   Ar  595   7.968   0.002   7.937
    1   AR   Ar  596   7.818   1.224   6.667
    1   AR   Ar  597   6.976   0.123   8.712
    1   AR   Ar  598   7.344   0.708   9.720
    1   AR   Ar  599   8.222  10.631   9.738
    1   AR   Ar  600   7.860   0.598   8.775
    1   AR   Ar  601   6.939   1.400   0.105
    1   AR   Ar  602   6.926   2.746   0.963
    1   AR   Ar  603   7.828   1.758   0.796
    1   AR   Ar  604   7.818   2.515   0.120
    1   AR   Ar  605   7.086   1.450   1.720
    1   AR   Ar  606   7.054   2.724   2.695
    1   AR   Ar  607   8.011   1.850   2.339
    1   AR   Ar  608   7.961   2.810   1.680
    1   AR   Ar  609   6.808   1.767   3.732
    1   AR   Ar  610   7.259   2.519   4.334
    1   AR   Ar  611   7.844   1.648   4.387
    1   AR   Ar  612   7.906   2.459   3.499
    1   AR   Ar  613   6.858   1.592   5.051
    1   AR   Ar  614   7.054   2.625   6.457
    1   AR   Ar  615   8.343   1.924   6.033
    1   AR   Ar  616   8.334   2.454   5.089
    1   AR   Ar  617   7.060   1.684   7.063
    1   AR   Ar  618   6.466   2.981   8.103
    1   AR   Ar  619   7.603   1.943   8.001
    1   AR   Ar  620   7.973   2.709   7.140
    1   AR   Ar  621   7.280   1.703   9.139
    1   AR   Ar  622   7.050   2.696   9.824
    1   AR   Ar  623   7.906   1.551   9.926
    1   AR   Ar  624   8.010   2.530   9.257
    1   AR   Ar  625   7.135   3.297   0.142
    1   AR   Ar  626   6.915   4.125   0.976
    1   AR   Ar  627   7.796   3.466   0.873
    1   AR   Ar  628   8.169   4.170  10.321
    1   AR   Ar  629   6.922   3.455   1.827
    1   AR   Ar  630   6.970   4.155   2.664
    1   AR   Ar  631   7.881   3.467   2.735
    1   AR   Ar  632   8.059   4.339   1.971
    1   AR   Ar  633   7.032   3.498   3.828
    1   AR   Ar  634   6.968   4.634   4.540
    1   AR   Ar  635   8.169   3.311   4.214
    1   AR   Ar  636   7.807   4.370   3.771
    1   AR   Ar  637   7.256   3.601   5.074
    1   AR   Ar  638   7.207   4.293   6.088
    1   AR   Ar  639   8.199   3.410   6.306
    1   AR   Ar  640   7.838   4.706   5.210
    1   AR   Ar  641   7.249   3.554   7.509
    1   AR   Ar  642   6.814   4.664   7.962
    1   AR   Ar  643   7.852   2.954   8.169
    1   AR   Ar  644   8.064   4.480   6.864
    1   AR   Ar  645   7.189   3.490   8.880
    1   AR   Ar  646   6.778   4.499   9.581
    1   AR   Ar  647   7.652   3.505   9.792
    1   AR   Ar  648   7.661   4.343   8.651
    1   AR   Ar  649   6.604   5.009  10.423
    1   AR   Ar  650   7.134   6.433   1.070
    1   AR   Ar  651   7.830   5.381   0.817
    1   AR   Ar  652   8.278   6.396   0.286
    1   AR   Ar  653   7.002   5.639   2.049
    1   AR   Ar  654   7.218   6.393   2.721
    1   AR   Ar  655   8.014   5.193   2.741
    1   AR   Ar  656   7.983   5.785   1.861
    1   AR   Ar  657   7.043   5.417   3.199
    1   AR   Ar  658   6.957   5.985   4.172
    1   AR   Ar  659   8.128   5.458   4.370
    1   AR   Ar  660   8.036   5.859   3.451
    1   AR   Ar  661   7.251   5.498   5.053
    1   AR   Ar  662   6.973   6.158   5.892
    1   AR   Ar  663   7.758   5.509   6.135
    1   AR   Ar  664   7.999   6.313   5.170
    1   AR   Ar  665   7.238   5.553   7.356
    1   AR   Ar  666   7.026   6.427   8.259
    1   AR   Ar  667   8.229   5.283   8.072
    1   AR   Ar  668   8.059   6.205   7.144
    1   AR   Ar  669   7.276   5.468   8.796
    1   AR   Ar  670   7.193   5.980   9.949
    1   AR   Ar  671   8.290   5.380   9.899
    1   AR   Ar  672   8.194   5.996   8.961
    1   AR   Ar  673   7.312   6.768  10.652
    1   AR   Ar  674   7.237   7.531   0.962
    1   AR   Ar  675   8.152   6.880   1.419
    1   AR   Ar  676   7.664   8.218   0.119
    1   AR   Ar  677   7.151   7.197   2.031
    1   AR   Ar  678   7.169   8.092   2.580
    1   AR   Ar  679   8.074   6.982   2.589
    1   AR   Ar  680   8.134   7.995   1.940
    1   AR   Ar  681   6.991   7.253   3.336
    1   AR   Ar  682   7.189   7.652   4.363
    1   AR   Ar  683   8.014   7.036   4.139
    1   AR   Ar  684   7.817   7.816   3.539
    1   AR   Ar  685   7.056   6.962   5.074
    1   AR   Ar  686   7.082   8.031   6.154
    1   AR   Ar  687   7.899   6.902   6.321
    1   AR   Ar  688   7.744   7.706   5.459
    1   AR   Ar  689   7.094   6.617   6.940
    1   AR   Ar  690   6.941   7.596   8.375
    1   AR   Ar  691   7.941   7.200   7.929
    1   AR   Ar  692   7.651   7.866   7.048
    1   AR   Ar  693   7.413   6.965   9.245
    1   AR   Ar  694   6.477   8.040   9.709
    1   AR   Ar  695   8.188   6.772   9.867
    1   AR   Ar  696   7.549   7.989   9.228
    1   AR   Ar  697   6.858   8.864   0.354
    1   AR   Ar  698   6.778   9.515   1.236
    1   AR   Ar  699   8.161   9.000   1.004
    1   AR   Ar  700   7.812   9.643   0.238
    1   AR   Ar  701   7.348   8.630   1.629
    1   AR   Ar  702   7.176   9.718   2.355
    1   AR   Ar  703   8.017   9.051   2.363
    1   AR   Ar  704   7.899   9.870   1.536
    1   AR   Ar  705   6.825   8.594   3.600
    1   AR   Ar  706   7.124  10.003   4.428
    1   AR   Ar  707   7.727   8.760   4.044
    1   AR   Ar  708   7.776   9.705   3.392
    1   AR   Ar  709   7.317   8.636   5.223
    1   AR   Ar  710   7.233   9.879   6.166
    1   AR   Ar  711   8.251   9.049   6.416
    1   AR   Ar  712   7.905  10.055   5.279
    1   AR   Ar  713   7.162   8.734   7.323
    1   AR   Ar  714   7.330   9.833   7.985
    1   AR   Ar  715   8.039   9.275   8.304
    1   AR   Ar  716   8.022  10.062   6.992
    1   AR   Ar  717   7.007   8.667   8.414
    1   AR   Ar  718   6.755   9.663   9.958
    1   AR   Ar  719   8.004   8.939   9.524
    1   AR   Ar  720   8.020  10.143   8.851
    1   AR   Ar  721   9.006  10.621   0.127
    1   AR   Ar  722   8.749   0.935   0.767
    1   AR   Ar  723   9.919   0.261   0.860
    1   AR   Ar  724   9.949   0.821  10.670
    1   AR   Ar  725   8.925  10.679   1.800
    1   AR   Ar  726   8.835   1.033   2.531
    1   AR   Ar  727   9.986  10.501   2.603
    1   AR   Ar  728   9.727   0.819   1.773
    1   AR   Ar  729   9.004  10.534   3.780
    1   AR   Ar  730   8.984   0.860   4.156
    1   AR   Ar  731   9.872   0.253   4.263
    1   AR   Ar  732   9.832   0.673   3.298
    1   AR   Ar  733   8.885  10.389   5.598
    1   AR   Ar  734   8.905   0.744   6.443
    1   AR   Ar  735   9.674  10.457   6.222
    1   AR   Ar  736   9.558   0.752   5.176
    1   AR   Ar  737   9.105   0.003   7.458
    1   AR   Ar  738   8.570   1.129   8.193
    1   AR   Ar  739  10.072   0.054   8.189
    1   AR   Ar  740  10.026   1.044   7.532
    1   AR   Ar  741   8.900   0.499   8.764
    1   AR   Ar  742   9.132   0.865   9.880
    1   AR   Ar  743   9.968   0.155   9.926
    1   AR   Ar  744  10.047   0.715   9.053
    1   AR   Ar  745   9.135   1.972  10.528
    1   AR   Ar  746   8.578   2.717   0.763
    1   AR   Ar  747   9.773   1.936   0.776
    1   AR   Ar  748   9.889   2.677   0.039
    1   AR   Ar  749   8.959   1.836   1.731
    1   AR   Ar  750   8.896   2.933   2.879
    1   AR   Ar  751  10.069   1.748   2.773
    1   AR   Ar  752   9.619   2.606   2.138
    1   AR   Ar  753   8.617   1.761   3.212
    1   AR   Ar  754   9.077   2.781   4.434
    1   AR   Ar  755   9.775   1.548   4.156
    1   AR   Ar  756   9.910   2.653   3.362
    1   AR   Ar  757   9.108   1.695   5.046
    1   AR   Ar  758   9.033   2.731   6.151
    1   AR   Ar  759   9.757   1.738   6.296
    1   AR   Ar  760   9.965   2.710   5.437
    1   AR   Ar  761   8.765   2.013   7.084
    1   AR   Ar  762   8.871   2.520   8.422
    1   AR   Ar  763   9.480   1.878   7.801
    1   AR   Ar  764   9.733   2.483   6.948
    1   AR   Ar  765   8.868   1.780   9.137
    1   AR   Ar  766   8.935   2.824   9.704
    1   AR   Ar  767   9.836   1.952   9.751
    1   AR   Ar  768  10.118   2.636   8.825
    1   AR   Ar  769   8.930   3.644   0.167
    1   AR   Ar  770   8.400   4.451   0.852
    1   AR   Ar  771   9.732   3.040   1.172
    1   AR   Ar  772  10.089   4.453  10.498
    1   AR   Ar  773   8.672   3.486   1.467
    1   AR   Ar  774   8.910   3.998   2.423
    1   AR   Ar  775   9.950   3.425   2.631
    1   AR   Ar  776   9.985   4.338   1.895
    1   AR   Ar  777   8.869   3.762   3.551
    1   AR   Ar  778   8.863   4.212   4.524
    1   AR   Ar  779  10.185   3.631   4.688
    1   AR   Ar  780   9.752   4.352   3.220
    1   AR   Ar  781   9.122   3.427   5.379
    1   AR   Ar  782   8.752   4.395   5.974
    1   AR   Ar  783   9.600   3.760   6.513
    1   AR   Ar  784   9.811   4.272   5.530
    1   AR   Ar  785   8.878   3.511   7.308
    1   AR   Ar  786   8.743   4.340   8.115
    1   AR   Ar  787   9.541   3.272   8.104
    1   AR   Ar  788   9.485   4.812   7.218
    1   AR   Ar  789   8.883   3.652   9.022
    1   AR   Ar  790   9.131   4.310   9.970
    1   AR   Ar  791   9.789   3.388   9.550
    1   AR   Ar  792   9.746   4.372   9.004
    1   AR   Ar  793   8.898   5.019   0.041
    1   AR   Ar  794   8.843   5.814   1.217
    1   AR   Ar  795  10.002   5.039   0.951
    1   AR   Ar  796  10.049   6.422  10.614
    1   AR   Ar  797   8.906   4.944   1.700
    1   AR   Ar  798   8.844   5.958   2.528
    1   AR   Ar  799   9.682   5.182   2.490
    1   AR   Ar  800   9.813   6.016   1.652
    1   AR   Ar  801   9.014   5.268   3.300
    1   AR   Ar  802   8.988   6.512   4.393
    1   AR   Ar  803   9.547   5.169   4.739
    1   AR   Ar  804   9.620   6.236   3.522
    1   AR   Ar  805   8.642   5.454   5.298
    1   AR   Ar  806   8.878   6.205   6.409
    1   AR   Ar  807   9.538   5.313   6.322
    1   AR   Ar  808   9.792   6.048   5.483
    1   AR   Ar  809   8.631   5.352   7.004
    1   AR   Ar  810   8.981   6.130   7.827
    1   AR   Ar  811   9.483   5.213   8.294
    1   AR   Ar  812   9.838   6.523   7.029
    1   AR   Ar  813   8.837   4.939   9.077
    1   AR   Ar  814   9.165   6.147   9.503
    1   AR   Ar  815   9.799   5.173   9.568
    1   AR   Ar  816   9.932   6.122   8.809
    1   AR   Ar  817   9.415   7.021  10.105
    1   AR   Ar  818   8.637   7.940   0.864
    1   AR   Ar  819   9.509   7.402   0.856
    1   AR   Ar  820   9.732   8.422   0.049
    1   AR   Ar  821   8.955   7.164   1.983
    1   AR   Ar  822   8.603   8.291   2.914
    1   AR   Ar  823   9.843   6.786   2.766
    1   AR   Ar  824  10.156   7.791   1.567
    1   AR   Ar  825   8.821   6.952   3.321
    1   AR   Ar  826   8.519   8.293   4.545
    1   AR   Ar  827   9.792   7.410   4.745
    1   AR   Ar  828   9.675   8.086   3.595
    1   AR   Ar  829   8.876   7.410   5.312
    1   AR   Ar  830   8.405   8.040   6.102
    1   AR   Ar  831   9.679   6.928   6.118
    1   AR   Ar  832   9.416   8.405   5.374
    1   AR   Ar  833   9.068   7.218   7.167
    1   AR   Ar  834   9.013   8.248   8.249
    1   AR   Ar  835   9.978   7.160   8.022
    1   AR   Ar  836   9.650   7.954   6.666
    1   AR   Ar  837   8.691   7.137   8.957
    1   AR   Ar  838   8.651   7.949   9.634
    1   AR   Ar  839  10.421   7.010   9.726
    1   AR   Ar  840  10.253   8.029   8.827
    1   AR   Ar  841   8.661   8.997  10.614
    1   AR   Ar  842   9.124   9.649   0.522
    1   AR   Ar  843   9.693   8.938   0.967
    1   AR   Ar  844  10.070   9.819  10.483
    1   AR   Ar  845   9.217   8.396   1.730
    1   AR   Ar  846   8.964   9.721   2.692
    1   AR   Ar  847   9.657   8.761   2.891
    1   AR   Ar  848   9.431   9.683   1.783
    1   AR   Ar  849   8.710   9.087   3.637
    1   AR   Ar  850   8.882   9.860   4.673
    1   AR   Ar  851   9.502   9.119   4.353
    1   AR   Ar  852   9.793   9.729   3.556
    1   AR   Ar  853   8.924   9.326   5.571
    1   AR   Ar  854   8.913   9.767   6.615
    1   AR   Ar  855   9.710   9.130   6.303
    1   AR   Ar  856   9.837   9.847   5.469
    1   AR   Ar  857   9.188   8.890   7.299
    1   AR   Ar  858   8.942  10.010   8.253
    1   AR   Ar  859   9.912   8.763   7.999
    1   AR   Ar  860   9.947   9.913   7.309
    1   AR   Ar  861   9.279   8.776   9.128
    1   AR   Ar  862   8.952  10.034   9.509
    1   AR   Ar  863  10.195   8.870   9.667
    1   AR   Ar  864   9.914   9.529   8.766
   10.68000 10.68000 10.68000
