Argon-slab
  256
    1   AR   Ar    1   0.410   0.160   0.311
    1   AR   Ar    2   0.031   0.837   1.156
    1   AR   Ar    3   1.296   0.187   1.022
    1   AR   Ar    4   0.807   1.028  -0.295
    1   AR   Ar    5   0.171   6.945   1.435
    1   AR   Ar    6   0.323   0.854   2.581
    1   AR   Ar    7   1.136   6.886   2.516
    1   AR   Ar    8   0.891   1.181   1.624
    1   AR   Ar    9   0.005   0.124   3.628
    1   AR   Ar   10   7.087   0.530   4.579
    1   AR   Ar   11   0.860   7.033   4.471
    1   AR   Ar   12   0.992   0.841   4.161
    1   AR   Ar   13   0.031   6.787   5.273
    1   AR   Ar   14   7.061   0.867   5.714
    1   AR   Ar   15   1.085   6.719   6.171
    1   AR   Ar   16   0.841   1.021   5.220
    1   AR   Ar   17   7.000   1.934  -0.028
    1   AR   Ar   18   0.262   2.531   0.854
    1   AR   Ar   19   0.740   1.548   0.624
    1   AR   Ar   20   0.756   3.123  -0.063
    1   AR   Ar   21   7.085   1.651   2.104
    1   AR   Ar   22   7.117   2.725   2.801
    1   AR   Ar   23   0.918   1.840   2.938
    1   AR   Ar   24   0.830   2.592   1.993
    1   AR   Ar   25   6.969   1.508   3.468
    1   AR   Ar   26   6.789   3.034   4.465
    1   AR   Ar   27   0.513   2.062   4.462
    1   AR   Ar   28   0.767   2.723   3.541
    1   AR   Ar   29   6.897   1.784   5.256
    1   AR   Ar   30   6.798   2.438   6.037
    1   AR   Ar   31   0.536   1.911   6.442
    1   AR   Ar   32   0.678   2.596   5.377
    1   AR   Ar   33   6.877   3.282   0.272
    1   AR   Ar   34   0.377   4.205   1.112
    1   AR   Ar   35   1.074   3.558   0.890
    1   AR   Ar   36   0.667   4.321   0.067
    1   AR   Ar   37   0.041   3.383   1.602
    1   AR   Ar   38   0.043   4.252   2.272
    1   AR   Ar   39   1.105   3.566   2.772
    1   AR   Ar   40   1.100   4.158   1.926
    1   AR   Ar   41   7.103   3.541   3.563
    1   AR   Ar   42   7.073   4.306   4.613
    1   AR   Ar   43   0.910   3.335   4.379
    1   AR   Ar   44   0.709   4.457   3.497
    1   AR   Ar   45   7.070   3.555   5.411
    1   AR   Ar   46   7.084   4.629   6.810
    1   AR   Ar   47   0.875   3.305   6.448
    1   AR   Ar   48   0.891   4.273   5.202
    1   AR   Ar   49   0.059   5.435   0.054
    1   AR   Ar   50   6.734   6.498   0.669
    1   AR   Ar   51   0.789   5.409   0.969
    1   AR   Ar   52   1.089   6.540  -0.476
    1   AR   Ar   53   0.099   5.477   1.768
    1   AR   Ar   54   7.092   6.159   2.678
    1   AR   Ar   55   0.946   5.327   2.856
    1   AR   Ar   56   0.924   6.288   1.638
    1   AR   Ar   57   7.080   5.453   3.454
    1   AR   Ar   58   0.048   6.208   4.381
    1   AR   Ar   59   0.858   5.135   4.228
    1   AR   Ar   60   0.850   6.106   3.744
    1   AR   Ar   61   0.105   5.398   5.082
    1   AR   Ar   62   0.053   5.992   6.086
    1   AR   Ar   63   1.222   5.340   6.056
    1   AR   Ar   64   1.125   6.255   5.238
    1   AR   Ar   65   2.395   0.032  -0.313
    1   AR   Ar   66   1.797   1.304   1.003
    1   AR   Ar   67   2.303   0.054   0.935
    1   AR   Ar   68   3.087   0.837   0.037
    1   AR   Ar   69   1.975   6.970   1.870
    1   AR   Ar   70   1.484   1.006   2.472
    1   AR   Ar   71   2.794   6.817   2.615
    1   AR   Ar   72   2.793   0.837   1.399
    1   AR   Ar   73   1.793   7.069   3.967
    1   AR   Ar   74   2.028   0.826   4.649
    1   AR   Ar   75   2.617   0.014   4.508
    1   AR   Ar   76   2.566   0.573   3.470
    1   AR   Ar   77   1.528   0.103   5.231
    1   AR   Ar   78   1.328   0.899   6.126
    1   AR   Ar   79   2.969   7.035   6.430
    1   AR   Ar   80   2.241   0.743   5.659
    1   AR   Ar   81   1.864   1.770  -0.221
    1   AR   Ar   82   1.483   2.476   0.842
    1   AR   Ar   83   2.686   2.108   1.149
    1   AR   Ar   84   2.575   2.678   0.217
    1   AR   Ar   85   1.935   2.290   1.900
    1   AR   Ar   86   1.735   2.613   2.857
    1   AR   Ar   87   2.917   1.587   2.212
    1   AR   Ar   88   2.899   2.915   1.781
    1   AR   Ar   89   1.704   1.755   3.757
    1   AR   Ar   90   1.792   2.322   4.730
    1   AR   Ar   91   2.667   1.548   4.253
    1   AR   Ar   92   2.498   2.677   4.056
    1   AR   Ar   93   1.628   1.588   5.366
    1   AR   Ar   94   1.485   2.336   6.262
    1   AR   Ar   95   2.489   1.767   6.008
    1   AR   Ar   96   2.733   2.394   5.251
    1   AR   Ar   97   1.936   3.559   0.258
    1   AR   Ar   98   1.671   4.606   1.181
    1   AR   Ar   99   2.677   3.407   0.864
    1   AR   Ar  100   3.253   4.319   0.078
    1   AR   Ar  101   1.881   3.524   1.682
    1   AR   Ar  102   2.035   4.519   2.257
    1   AR   Ar  103   2.639   3.048   2.742
    1   AR   Ar  104   2.686   4.361   1.367
    1   AR   Ar  105   1.941   3.406   3.600
    1   AR   Ar  106   1.677   4.190   4.460
    1   AR   Ar  107   2.697   4.083   4.350
    1   AR   Ar  108   2.314   4.600   3.416
    1   AR   Ar  109   2.114   3.550   5.228
    1   AR   Ar  110   1.688   4.403   6.384
    1   AR   Ar  111   2.702   3.567   6.313
    1   AR   Ar  112   2.487   4.593   5.458
    1   AR   Ar  113   1.929   5.119   0.177
    1   AR   Ar  114   1.774   6.156   0.899
    1   AR   Ar  115   2.669   5.296   0.771
    1   AR   Ar  116   2.440   6.202  -0.590
    1   AR   Ar  117   1.745   5.619   1.697
    1   AR   Ar  118   1.712   6.035   2.891
    1   AR   Ar  119   2.578   5.489   2.835
    1   AR   Ar  120   2.944   5.988   1.838
    1   AR   Ar  121   1.827   5.422   3.802
    1   AR   Ar  122   1.850   6.110   4.500
    1   AR   Ar  123   2.842   5.472   4.063
    1   AR   Ar  124   2.441   6.364   3.657
    1   AR   Ar  125   1.745   5.241   5.037
    1   AR   Ar  126   2.127   6.202   5.999
    1   AR   Ar  127   2.628   5.114   6.420
    1   AR   Ar  128   2.856   6.055   4.890
    1   AR   Ar  129   3.794   7.085   0.196
    1   AR   Ar  130   4.162   0.764   0.926
    1   AR   Ar  131   4.339   6.801   0.990
    1   AR   Ar  132   4.608   0.433  -0.278
    1   AR   Ar  133   3.676   0.043   1.743
    1   AR   Ar  134   3.805   1.025   2.485
    1   AR   Ar  135   4.436   0.157   2.578
    1   AR   Ar  136   4.740   0.774   1.867
    1   AR   Ar  137   3.649   7.111   3.275
    1   AR   Ar  138   3.504   0.819   4.121
    1   AR   Ar  139   4.293   6.961   4.704
    1   AR   Ar  140   4.498   1.000   3.586
    1   AR   Ar  141   3.322   0.317   5.132
    1   AR   Ar  142   3.210   1.027   5.903
    1   AR   Ar  143   4.218   6.813   6.321
    1   AR   Ar  144   4.586   1.185   5.378
    1   AR   Ar  145   3.550   1.918   0.417
    1   AR   Ar  146   3.877   2.911   0.975
    1   AR   Ar  147   4.584   1.870   0.827
    1   AR   Ar  148   4.516   2.476  -0.121
    1   AR   Ar  149   3.631   1.867   1.651
    1   AR   Ar  150   3.517   2.562   2.933
    1   AR   Ar  151   4.750   1.984   2.584
    1   AR   Ar  152   4.709   2.659   1.605
    1   AR   Ar  153   4.130   1.956   3.892
    1   AR   Ar  154   3.523   2.794   4.384
    1   AR   Ar  155   5.049   1.762   4.469
    1   AR   Ar  156   4.460   3.128   3.880
    1   AR   Ar  157   3.778   1.545   4.765
    1   AR   Ar  158   3.291   2.669   6.151
    1   AR   Ar  159   4.131   2.352   6.638
    1   AR   Ar  160   4.081   2.442   5.291
    1   AR   Ar  161   4.020   3.418   0.122
    1   AR   Ar  162   3.605   4.703   1.011
    1   AR   Ar  163   4.754   3.734   0.990
    1   AR   Ar  164   4.487   4.519  -0.071
    1   AR   Ar  165   3.515   3.783   1.549
    1   AR   Ar  166   3.126   4.443   2.790
    1   AR   Ar  167   3.992   3.744   2.729
    1   AR   Ar  168   4.407   4.735   1.723
    1   AR   Ar  169   3.634   3.711   3.750
    1   AR   Ar  170   3.743   4.549   4.353
    1   AR   Ar  171   4.187   3.755   4.889
    1   AR   Ar  172   4.604   4.827   3.365
    1   AR   Ar  173   3.220   3.649   5.375
    1   AR   Ar  174   3.572   4.556   6.241
    1   AR   Ar  175   4.319   3.330   5.864
    1   AR   Ar  176   4.324   4.771   5.581
    1   AR   Ar  177   3.397   5.457  -0.007
    1   AR   Ar  178   3.166   6.500   0.896
    1   AR   Ar  179   4.260   5.656   1.087
    1   AR   Ar  180   4.163   6.172  -0.156
    1   AR   Ar  181   3.327   4.974   1.978
    1   AR   Ar  182   3.950   6.200   2.530
    1   AR   Ar  183   4.699   5.534   2.682
    1   AR   Ar  184   4.793   6.260   1.801
    1   AR   Ar  185   3.743   5.443   3.526
    1   AR   Ar  186   3.589   6.267   4.201
    1   AR   Ar  187   4.240   5.544   4.444
    1   AR   Ar  188   4.468   6.409   3.414
    1   AR   Ar  189   3.229   5.067   5.111
    1   AR   Ar  190   3.268   6.016   6.132
    1   AR   Ar  191   4.586   5.534   6.380
    1   AR   Ar  192   4.245   6.158   5.479
    1   AR   Ar  193   5.514   0.011   0.212
    1   AR   Ar  194   5.262   0.861   0.886
    1   AR   Ar  195   6.271   0.269   1.018
    1   AR   Ar  196   6.372   1.058   0.373
    1   AR   Ar  197   5.579   7.071   1.908
    1   AR   Ar  198   5.479   0.947   2.578
    1   AR   Ar  199   6.289   0.284   2.961
    1   AR   Ar  200   6.078   0.939   1.773
    1   AR   Ar  201   5.195   7.105   3.669
    1   AR   Ar  202   5.336   0.800   4.474
    1   AR   Ar  203   6.327   7.109   4.400
    1   AR   Ar  204   6.129   0.760   3.851
    1   AR   Ar  205   5.435   7.009   4.956
    1   AR   Ar  206   5.513   0.677   5.963
    1   AR   Ar  207   6.409   0.063   6.008
    1   AR   Ar  208   6.140   0.989   5.178
    1   AR   Ar  209   5.639   1.847   0.316
    1   AR   Ar  210   5.343   2.795   0.735
    1   AR   Ar  211   6.529   1.893   1.135
    1   AR   Ar  212   6.035   2.770  -0.061
    1   AR   Ar  213   5.452   1.910   1.459
    1   AR   Ar  214   5.623   2.745   2.639
    1   AR   Ar  215   6.148   1.725   2.415
    1   AR   Ar  216   6.558   2.656   1.905
    1   AR   Ar  217   5.447   1.549   3.493
    1   AR   Ar  218   5.379   2.799   4.731
    1   AR   Ar  219   6.101   1.832   4.632
    1   AR   Ar  220   6.265   2.962   3.590
    1   AR   Ar  221   5.333   2.016   5.373
    1   AR   Ar  222   5.180   2.793   6.562
    1   AR   Ar  223   6.032   1.744   6.226
    1   AR   Ar  224   6.125   3.034   5.398
    1   AR   Ar  225   5.255   3.485  -0.189
    1   AR   Ar  226   5.265   4.700   0.902
    1   AR   Ar  227   6.222   3.607   0.935
    1   AR   Ar  228   6.616   4.532   0.217
    1   AR   Ar  229   5.313   3.628   1.971
    1   AR   Ar  230   5.045   4.331   2.687
    1   AR   Ar  231   6.429   3.478   2.623
    1   AR   Ar  232   6.238   4.555   1.488
    1   AR   Ar  233   5.145   3.515   3.252
    1   AR   Ar  234   5.316   4.466   4.497
    1   AR   Ar  235   6.067   3.836   4.341
    1   AR   Ar  236   6.514   4.370   3.441
    1   AR   Ar  237   5.342   3.735   5.497
    1   AR   Ar  238   5.138   4.557   6.157
    1   AR   Ar  239   6.155   3.904   6.337
    1   AR   Ar  240   6.181   4.821   5.291
    1   AR   Ar  241   5.261   5.313   0.075
    1   AR   Ar  242   5.237   6.138   0.828
    1   AR   Ar  243   6.166   5.296   0.753
    1   AR   Ar  244   6.133   6.162  -0.146
    1   AR   Ar  245   5.607   5.624   1.761
    1   AR   Ar  246   5.365   6.495   2.779
    1   AR   Ar  247   6.400   5.371   2.443
    1   AR   Ar  248   6.440   6.319   1.732
    1   AR   Ar  249   5.706   5.512   3.318
    1   AR   Ar  250   5.457   6.242   4.281
    1   AR   Ar  251   6.216   5.413   4.292
    1   AR   Ar  252   6.154   6.434   3.492
    1   AR   Ar  253   5.281   5.295   5.378
    1   AR   Ar  254   5.453   5.974   6.202
    1   AR   Ar  255   6.248   5.308   6.443
    1   AR   Ar  256   6.201   6.368   5.352
    7.12000  7.12000 12.00000
