Argon-slab
  256
    1   AR   Ar    1   0.027   0.165   0.248
    1   AR   Ar    2   0.016   0.831   1.063
    1   AR   Ar    3   0.858   7.022   0.981
    1   AR   Ar    4   0.871   0.695   0.091
    1   AR   Ar    5   6.957   6.911   1.724
    1   AR   Ar    6   0.110   0.740   2.446
    1   AR   Ar    7   0.899   7.003   2.748
    1   AR   Ar    8   0.982   0.928   1.851
    1   AR   Ar    9   7.093   7.000   3.644
    1   AR   Ar   10   0.086   0.448   4.602
    1   AR   Ar   11   1.139   7.038   4.569
    1   AR   Ar   12   0.517   0.685   3.416
    1   AR   Ar   13   7.048   7.011   5.556
    1   AR   Ar   14   7.105   0.714   6.215
    1   AR   Ar   15   1.309   0.120   5.906
    1   AR   Ar   16   0.874   0.976   5.371
    1   AR   Ar   17   0.287   1.770   0.058
    1   AR   Ar   18   7.063   2.635   0.959
    1   AR   Ar   19   0.844   1.813   1.151
    1   AR   Ar   20   0.807   2.681   0.267
    1   AR   Ar   21   7.054   1.641   1.731
    1   AR   Ar   22   6.890   2.818   2.797
    1   AR   Ar   23   0.625   1.874   2.581
    1   AR   Ar   24   0.682   2.722   1.754
    1   AR   Ar   25   7.063   1.695   3.775
    1   AR   Ar   26   6.602   2.747   3.953
    1   AR   Ar   27   0.910   1.870   4.543
    1   AR   Ar   28   0.694   2.848   3.278
    1   AR   Ar   29   7.046   1.648   5.136
    1   AR   Ar   30   0.263   2.503   6.110
    1   AR   Ar   31   1.447   1.530   6.105
    1   AR   Ar   32   0.856   2.699   5.170
    1   AR   Ar   33   6.973   3.655   0.153
    1   AR   Ar   34   6.864   4.644   1.004
    1   AR   Ar   35   0.636   3.651   0.931
    1   AR   Ar   36   0.711   4.440   0.245
    1   AR   Ar   37   6.910   3.775   1.993
    1   AR   Ar   38   0.208   4.391   2.766
    1   AR   Ar   39   0.740   3.536   2.500
    1   AR   Ar   40   0.998   4.452   1.876
    1   AR   Ar   41   6.943   3.802   3.600
    1   AR   Ar   42   0.002   4.261   4.736
    1   AR   Ar   43   0.815   3.379   4.379
    1   AR   Ar   44   0.935   4.413   4.139
    1   AR   Ar   45   0.264   3.703   5.545
    1   AR   Ar   46   0.119   4.530   6.125
    1   AR   Ar   47   0.940   3.520   6.576
    1   AR   Ar   48   0.951   4.554   5.381
    1   AR   Ar   49   0.056   5.334  -0.130
    1   AR   Ar   50   7.102   6.409   0.582
    1   AR   Ar   51   0.492   5.404   0.851
    1   AR   Ar   52   1.037   6.359   0.037
    1   AR   Ar   53   0.013   5.214   2.055
    1   AR   Ar   54   7.113   6.483   2.652
    1   AR   Ar   55   0.964   5.230   2.630
    1   AR   Ar   56   0.812   6.213   1.922
    1   AR   Ar   57   0.010   5.248   3.432
    1   AR   Ar   58   7.024   6.108   4.554
    1   AR   Ar   59   0.921   5.353   4.488
    1   AR   Ar   60   0.756   6.032   3.349
    1   AR   Ar   61   0.126   5.233   5.231
    1   AR   Ar   62   6.554   6.144   6.099
    1   AR   Ar   63   0.792   5.584   6.084
    1   AR   Ar   64   0.953   6.365   5.406
    1   AR   Ar   65   1.683   0.193  -0.281
    1   AR   Ar   66   1.773   1.004   1.052
    1   AR   Ar   67   2.859   0.378   0.797
    1   AR   Ar   68   2.401   1.019  -0.024
    1   AR   Ar   69   1.581   6.902   1.653
    1   AR   Ar   70   1.608   1.044   2.986
    1   AR   Ar   71   2.565   0.045   3.129
    1   AR   Ar   72   3.036   0.966   1.634
    1   AR   Ar   73   1.454   0.399   3.700
    1   AR   Ar   74   1.621   1.010   4.691
    1   AR   Ar   75   2.787   7.068   4.414
    1   AR   Ar   76   2.782   0.974   4.078
    1   AR   Ar   77   2.087   7.118   5.264
    1   AR   Ar   78   2.297   0.525   6.104
    1   AR   Ar   79   3.119   6.978   6.494
    1   AR   Ar   80   2.758   0.869   5.123
    1   AR   Ar   81   1.514   1.784  -0.083
    1   AR   Ar   82   1.758   2.387   0.830
    1   AR   Ar   83   2.859   1.888   0.613
    1   AR   Ar   84   2.834   2.723  -0.231
    1   AR   Ar   85   1.907   1.887   1.826
    1   AR   Ar   86   1.856   2.764   2.460
    1   AR   Ar   87   2.656   1.443   2.631
    1   AR   Ar   88   2.516   2.648   1.606
    1   AR   Ar   89   1.411   1.954   3.461
    1   AR   Ar   90   1.931   2.988   4.589
    1   AR   Ar   91   2.716   1.875   4.702
    1   AR   Ar   92   2.688   2.791   3.948
    1   AR   Ar   93   1.802   1.893   5.214
    1   AR   Ar   94   1.663   2.722   5.976
    1   AR   Ar   95   2.841   1.560   6.137
    1   AR   Ar   96   2.767   2.633   5.361
    1   AR   Ar   97   1.725   3.028  -0.370
    1   AR   Ar   98   1.916   4.478   1.243
    1   AR   Ar   99   2.536   3.378   0.683
    1   AR   Ar  100   2.423   4.476   0.232
    1   AR   Ar  101   1.690   3.489   1.443
    1   AR   Ar  102   1.393   4.381   3.166
    1   AR   Ar  103   2.199   3.713   2.565
    1   AR   Ar  104   2.759   4.861   1.898
    1   AR   Ar  105   1.825   3.671   3.885
    1   AR   Ar  106   1.856   4.676   4.756
    1   AR   Ar  107   2.873   3.509   4.711
    1   AR   Ar  108   2.865   4.185   3.757
    1   AR   Ar  109   1.759   3.702   5.367
    1   AR   Ar  110   2.099   4.658   6.177
    1   AR   Ar  111   2.507   3.558   6.452
    1   AR   Ar  112   2.672   4.304   5.267
    1   AR   Ar  113   1.594   5.279   0.125
    1   AR   Ar  114   1.465   6.178   1.005
    1   AR   Ar  115   2.909   5.345   0.606
    1   AR   Ar  116   2.384   6.312   0.189
    1   AR   Ar  117   1.930   5.637   1.748
    1   AR   Ar  118   1.630   6.089   2.704
    1   AR   Ar  119   2.802   5.458   2.835
    1   AR   Ar  120   2.690   6.468   1.293
    1   AR   Ar  121   1.914   5.299   3.551
    1   AR   Ar  122   1.712   6.217   4.616
    1   AR   Ar  123   2.453   5.461   4.502
    1   AR   Ar  124   2.450   6.298   3.914
    1   AR   Ar  125   1.817   5.574   5.439
    1   AR   Ar  126   1.928   6.288   6.469
    1   AR   Ar  127   2.769   5.599   6.066
    1   AR   Ar  128   2.618   6.201   5.274
    1   AR   Ar  129   3.394   7.014   0.076
    1   AR   Ar  130   3.734   0.895   0.782
    1   AR   Ar  131   4.526   0.061   1.042
    1   AR   Ar  132   4.689   0.846   0.397
    1   AR   Ar  133   3.533   6.964   1.437
    1   AR   Ar  134   3.689   0.726   2.504
    1   AR   Ar  135   4.332   7.078   2.229
    1   AR   Ar  136   4.515   1.019   1.765
    1   AR   Ar  137   3.772   6.878   3.384
    1   AR   Ar  138   3.644   0.730   4.484
    1   AR   Ar  139   4.470   0.050   4.437
    1   AR   Ar  140   4.287   0.741   3.453
    1   AR   Ar  141   3.624   6.823   5.520
    1   AR   Ar  142   3.670   0.688   6.157
    1   AR   Ar  143   4.740   6.840   6.392
    1   AR   Ar  144   4.478   0.988   5.189
    1   AR   Ar  145   3.670   1.520  -0.086
    1   AR   Ar  146   3.614   2.725   1.012
    1   AR   Ar  147   4.303   2.029   0.728
    1   AR   Ar  148   4.504   2.658  -0.143
    1   AR   Ar  149   3.642   1.807   1.699
    1   AR   Ar  150   3.198   2.366   2.516
    1   AR   Ar  151   4.298   1.688   2.679
    1   AR   Ar  152   4.520   2.625   1.752
    1   AR   Ar  153   3.478   1.431   3.438
    1   AR   Ar  154   3.745   2.654   4.827
    1   AR   Ar  155   4.205   1.683   4.392
    1   AR   Ar  156   4.517   2.556   3.357
    1   AR   Ar  157   3.554   1.638   5.272
    1   AR   Ar  158   3.811   2.798   6.255
    1   AR   Ar  159   4.230   1.797   6.540
    1   AR   Ar  160   4.486   2.781   5.521
    1   AR   Ar  161   3.593   3.553  -0.071
    1   AR   Ar  162   3.863   4.428   0.839
    1   AR   Ar  163   4.372   3.630   1.294
    1   AR   Ar  164   4.540   4.467  -0.023
    1   AR   Ar  165   3.634   3.120   2.042
    1   AR   Ar  166   3.447   4.727   2.757
    1   AR   Ar  167   4.293   3.309   2.722
    1   AR   Ar  168   4.572   4.375   2.088
    1   AR   Ar  169   3.732   3.379   3.745
    1   AR   Ar  170   3.647   4.174   4.533
    1   AR   Ar  171   4.805   3.533   4.614
    1   AR   Ar  172   4.287   4.370   3.398
    1   AR   Ar  173   3.517   3.559   5.591
    1   AR   Ar  174   3.169   4.529   6.496
    1   AR   Ar  175   4.255   3.771   6.389
    1   AR   Ar  176   4.306   4.628   5.262
    1   AR   Ar  177   3.865   5.391  -0.137
    1   AR   Ar  178   3.681   5.919   1.048
    1   AR   Ar  179   4.570   5.196   0.672
    1   AR   Ar  180   4.451   6.355   0.260
    1   AR   Ar  181   3.773   5.120   1.758
    1   AR   Ar  182   3.385   6.129   2.051
    1   AR   Ar  183   4.440   5.520   2.543
    1   AR   Ar  184   4.524   6.038   1.679
    1   AR   Ar  185   3.209   5.261   3.834
    1   AR   Ar  186   3.801   6.224   4.460
    1   AR   Ar  187   4.260   5.161   4.236
    1   AR   Ar  188   4.556   6.185   3.672
    1   AR   Ar  189   3.447   5.129   4.857
    1   AR   Ar  190   3.662   6.021   6.204
    1   AR   Ar  191   4.346   4.871   6.489
    1   AR   Ar  192   4.466   5.777   5.214
    1   AR   Ar  193   5.319   7.027   0.249
    1   AR   Ar  194   5.485   0.640   0.960
    1   AR   Ar  195   6.202   6.791   0.912
    1   AR   Ar  196   5.994   0.890   0.118
    1   AR   Ar  197   5.369   0.095   2.053
    1   AR   Ar  198   5.261   0.898   2.740
    1   AR   Ar  199   6.263   7.095   2.881
    1   AR   Ar  200   6.181   0.592   1.697
    1   AR   Ar  201   5.312   0.060   3.584
    1   AR   Ar  202   5.731   0.751   4.337
    1   AR   Ar  203   6.327   6.887   4.532
    1   AR   Ar  204   6.405   0.829   3.509
    1   AR   Ar  205   5.381   7.118   5.272
    1   AR   Ar  206   5.414   0.918   5.861
    1   AR   Ar  207   6.074   0.073   6.165
    1   AR   Ar  208   6.331   0.715   5.246
    1   AR   Ar  209   5.031   1.784  -0.121
    1   AR   Ar  210   5.243   2.172   0.946
    1   AR   Ar  211   6.327   1.461   0.938
    1   AR   Ar  212   6.127   2.979   0.595
    1   AR   Ar  213   5.493   1.540   1.783
    1   AR   Ar  214   5.209   2.371   2.538
    1   AR   Ar  215   6.563   1.565   2.688
    1   AR   Ar  216   6.309   2.415   1.746
    1   AR   Ar  217   5.380   1.536   3.768
    1   AR   Ar  218   5.022   2.428   4.509
    1   AR   Ar  219   6.131   1.788   4.404
    1   AR   Ar  220   5.478   2.771   3.596
    1   AR   Ar  221   5.504   1.608   5.059
    1   AR   Ar  222   5.265   2.798   6.335
    1   AR   Ar  223   6.369   2.038   5.874
    1   AR   Ar  224   6.694   2.833   5.278
    1   AR   Ar  225   5.378   3.549  -0.261
    1   AR   Ar  226   5.053   4.398   0.979
    1   AR   Ar  227   6.141   3.892   1.097
    1   AR   Ar  228   5.783   4.823   0.361
    1   AR   Ar  229   5.397   3.650   1.732
    1   AR   Ar  230   5.348   4.462   2.772
    1   AR   Ar  231   6.171   3.552   2.971
    1   AR   Ar  232   6.176   4.715   1.900
    1   AR   Ar  233   5.365   3.803   3.639
    1   AR   Ar  234   5.128   4.572   4.352
    1   AR   Ar  235   6.000   3.802   4.505
    1   AR   Ar  236   6.242   4.581   3.358
    1   AR   Ar  237   5.530   3.311   5.318
    1   AR   Ar  238   5.201   4.224   5.809
    1   AR   Ar  239   6.352   3.479   6.162
    1   AR   Ar  240   6.132   4.412   5.265
    1   AR   Ar  241   5.218   5.627  -0.031
    1   AR   Ar  242   5.313   6.018   1.007
    1   AR   Ar  243   6.341   5.646   1.306
    1   AR   Ar  244   6.137   6.018   0.221
    1   AR   Ar  245   5.243   5.237   1.919
    1   AR   Ar  246   5.193   6.381   2.704
    1   AR   Ar  247   6.183   5.399   2.708
    1   AR   Ar  248   5.950   6.459   1.853
    1   AR   Ar  249   5.232   5.305   3.284
    1   AR   Ar  250   5.287   5.951   4.505
    1   AR   Ar  251   6.040   5.088   4.421
    1   AR   Ar  252   6.082   6.205   3.404
    1   AR   Ar  253   5.243   5.082   5.190
    1   AR   Ar  254   5.394   6.107   6.081
    1   AR   Ar  255   5.864   5.112   6.064
    1   AR   Ar  256   6.109   5.695   5.245
    7.12000  7.12000 12.00000
