Argon-slab
  256
    1   AR   Ar    1   4.081   2.810  -0.716
    1   AR   Ar    2   5.393   0.257   1.294
    1   AR   Ar    3   4.202   3.695  -1.541
    1   AR   Ar    4   2.430   0.959   1.314
    1   AR   Ar    5   6.231   5.819   0.122
    1   AR   Ar    6   1.474   1.216   1.992
    1   AR   Ar    7   5.528   4.243   2.591
    1   AR   Ar    8   5.951   2.695   0.085
    1   AR   Ar    9   0.178   5.239   4.913
    1   AR   Ar   10   5.845   4.700   5.576
    1   AR   Ar   11   0.789   6.474   4.586
    1   AR   Ar   12   6.981   2.221   4.155
    1   AR   Ar   13   7.067   6.883   5.164
    1   AR   Ar   14   4.370   1.497   6.135
    1   AR   Ar   15   3.038   6.374   9.314
    1   AR   Ar   16   0.548   6.872   6.755
    1   AR   Ar   17   5.620   3.517   0.975
    1   AR   Ar   18   0.341   3.890  -2.862
    1   AR   Ar   19   4.524   5.716  -0.154
    1   AR   Ar   20   6.555   2.501  -2.324
    1   AR   Ar   21   2.513   1.343   2.317
    1   AR   Ar   22   4.233   0.613   2.097
    1   AR   Ar   23   1.903   5.201  -0.520
    1   AR   Ar   24   5.978   2.840   4.333
    1   AR   Ar   25   1.047   3.684   6.137
    1   AR   Ar   26   5.910   5.800   5.181
    1   AR   Ar   27   0.679   0.362   0.462
    1   AR   Ar   28   2.905   1.990   4.294
    1   AR   Ar   29   5.057   6.559   7.187
    1   AR   Ar   30   5.873   0.604   3.336
    1   AR   Ar   31   1.357   1.046   7.117
    1   AR   Ar   32   1.729   2.773   6.180
    1   AR   Ar   33   5.095   5.633   0.718
    1   AR   Ar   34   1.468   5.042   3.170
    1   AR   Ar   35   5.983   5.211   2.647
    1   AR   Ar   36   4.013   1.940  -4.042
    1   AR   Ar   37   4.481   3.750   0.941
    1   AR   Ar   38   6.271   5.043   4.598
    1   AR   Ar   39   6.466   3.370   3.425
    1   AR   Ar   40   0.798   3.779   2.011
    1   AR   Ar   41   0.836   1.648   3.925
    1   AR   Ar   42   4.794   4.532   5.317
    1   AR   Ar   43   7.065   2.964   5.825
    1   AR   Ar   44   1.618   3.675   3.078
    1   AR   Ar   45   2.186   3.979   4.883
    1   AR   Ar   46   5.897   5.882   6.467
    1   AR   Ar   47   2.345   3.736   6.062
    1   AR   Ar   48   0.311   3.710   7.039
    1   AR   Ar   49   7.080   2.431   0.319
    1   AR   Ar   50   2.605   4.799   0.878
    1   AR   Ar   51   5.630   3.278   2.966
    1   AR   Ar   52   5.483   3.362  -2.303
    1   AR   Ar   53   4.609   7.066   3.222
    1   AR   Ar   54   5.557   6.856   2.774
    1   AR   Ar   55   0.303   5.370   2.782
    1   AR   Ar   56   5.953   1.485   3.787
    1   AR   Ar   57   4.955   5.290   2.834
    1   AR   Ar   58   1.078   3.151   4.477
    1   AR   Ar   59   4.254   5.589   5.793
    1   AR   Ar   60   0.506   4.975   1.663
    1   AR   Ar   61   6.924   4.617   6.928
    1   AR   Ar   62   0.178   3.955   5.484
    1   AR   Ar   63   2.433   1.194   7.360
    1   AR   Ar   64   0.775   4.912   3.993
    1   AR   Ar   65   3.678   0.852   2.905
    1   AR   Ar   66   0.870   1.612   0.745
    1   AR   Ar   67   4.909   1.539  -1.272
    1   AR   Ar   68   6.760   1.035   1.117
    1   AR   Ar   69   2.961   2.025   1.294
    1   AR   Ar   70   0.345   1.019   1.970
    1   AR   Ar   71   2.713   0.360   3.040
    1   AR   Ar   72   4.478   1.665   1.718
    1   AR   Ar   73   3.553   0.385   3.883
    1   AR   Ar   74   0.833   0.677   3.203
    1   AR   Ar   75   3.062   1.404   6.646
    1   AR   Ar   76   2.411   0.194   2.091
    1   AR   Ar   77   1.344   6.037   6.695
    1   AR   Ar   78   0.043   5.144   6.005
    1   AR   Ar   79   3.630   6.043   4.946
    1   AR   Ar   80   3.470   4.658   6.770
    1   AR   Ar   81   1.827   6.477   2.003
    1   AR   Ar   82   6.558   4.773   1.882
    1   AR   Ar   83   1.671   2.994   0.827
    1   AR   Ar   84   0.775   3.953   0.923
    1   AR   Ar   85   0.727   2.732  -1.227
    1   AR   Ar   86   1.147   6.030   1.333
    1   AR   Ar   87   4.491   1.997   3.003
    1   AR   Ar   88   3.471   4.699   1.722
    1   AR   Ar   89   6.507   2.449   1.161
    1   AR   Ar   90   3.956   0.574   7.122
    1   AR   Ar   91   1.744   1.678   3.334
    1   AR   Ar   92   3.326   3.464   1.361
    1   AR   Ar   93   1.328   1.304   5.485
    1   AR   Ar   94   7.073   6.970   9.998
    1   AR   Ar   95   4.989   0.470   6.773
    1   AR   Ar   96   1.706   0.204   6.060
    1   AR   Ar   97   5.516   2.180  -2.009
    1   AR   Ar   98   1.442   4.186   4.207
    1   AR   Ar   99   5.941   6.783  -0.474
    1   AR   Ar  100   5.235   1.754  -3.746
    1   AR   Ar  101   4.047   6.049   2.953
    1   AR   Ar  102   4.184   2.615   1.499
    1   AR   Ar  103   1.915   3.568   1.739
    1   AR   Ar  104   3.196   0.341  -0.785
    1   AR   Ar  105   2.492   2.469   3.507
    1   AR   Ar  106   4.210   1.290   3.798
    1   AR   Ar  107   1.113   4.467   5.328
    1   AR   Ar  108   2.371   0.647   3.941
    1   AR   Ar  109   2.543   5.053   5.033
    1   AR   Ar  110   2.259   2.683   4.842
    1   AR   Ar  111   4.040   4.391   7.487
    1   AR   Ar  112   6.695   6.744   6.886
    1   AR   Ar  113   5.764   6.483  -1.658
    1   AR   Ar  114   3.332   0.443   0.813
    1   AR   Ar  115   6.583   4.532  -1.059
    1   AR   Ar  116   5.605   1.245   1.263
    1   AR   Ar  117   0.021   4.493   3.235
    1   AR   Ar  118   1.781   6.043   3.783
    1   AR   Ar  119   1.915   2.796   2.525
    1   AR   Ar  120   1.776   7.103   2.920
    1   AR   Ar  121   5.463   5.246   7.514
    1   AR   Ar  122   2.696   4.711   3.785
    1   AR   Ar  123   2.883   2.307   5.594
    1   AR   Ar  124   0.188   6.260   1.082
    1   AR   Ar  125   6.133   4.270   3.843
    1   AR   Ar  126   0.111   1.388   6.861
    1   AR   Ar  127   3.824   3.537   6.185
    1   AR   Ar  128   1.289   4.400   7.682
    1   AR   Ar  129   1.321   5.350   4.743
    1   AR   Ar  130   5.981   0.460  -4.723
    1   AR   Ar  131   4.043   0.379  -0.151
    1   AR   Ar  132   1.761   2.073   1.677
    1   AR   Ar  133   4.601   0.397   4.280
    1   AR   Ar  134   3.559   1.210   4.633
    1   AR   Ar  135   5.281   0.790   5.704
    1   AR   Ar  136   4.296   6.682   2.205
    1   AR   Ar  137   1.956   5.134   5.942
    1   AR   Ar  138   5.995   1.601   6.014
    1   AR   Ar  139   6.416   2.101   5.121
    1   AR   Ar  140   4.769   6.181   5.116
    1   AR   Ar  141   3.441   5.561   3.890
    1   AR   Ar  142   3.814   5.360   8.511
    1   AR   Ar  143   5.185   6.228   8.576
    1   AR   Ar  144   7.095   3.127   4.798
    1   AR   Ar  145   4.502   4.820  -1.654
    1   AR   Ar  146   4.046   2.195   3.993
    1   AR   Ar  147   4.369   4.355  -0.532
    1   AR   Ar  148   1.904   6.069   0.287
    1   AR   Ar  149   5.461   2.061  -0.451
    1   AR   Ar  150   0.694   1.839   2.606
    1   AR   Ar  151   2.940   2.749   2.431
    1   AR   Ar  152   0.399   0.586  -0.637
    1   AR   Ar  153   4.848   1.045   3.047
    1   AR   Ar  154   4.876   2.948   3.682
    1   AR   Ar  155   4.854   3.615   5.649
    1   AR   Ar  156   3.266   4.088   2.953
    1   AR   Ar  157   3.042   5.477   6.173
    1   AR   Ar  158   1.019   2.438   7.580
    1   AR   Ar  159   3.605   0.109   5.186
    1   AR   Ar  160   0.653   2.165   4.969
    1   AR   Ar  161   4.924   4.666   4.099
    1   AR   Ar  162   3.714   5.238  -0.860
    1   AR   Ar  163   6.758   3.889   2.324
    1   AR   Ar  164   2.327   5.551   2.683
    1   AR   Ar  165   3.383   4.190   0.617
    1   AR   Ar  166   3.214   3.544   5.326
    1   AR   Ar  167   6.292   0.195   4.533
    1   AR   Ar  168   6.066   4.612  -1.914
    1   AR   Ar  169   4.379   3.392   2.745
    1   AR   Ar  170   2.611   2.953   7.033
    1   AR   Ar  171   4.833   5.771   3.771
    1   AR   Ar  172   3.581   3.035   4.498
    1   AR   Ar  173   7.051   2.625   7.130
    1   AR   Ar  174   2.546   6.487   4.534
    1   AR   Ar  175   0.489   0.195   7.829
    1   AR   Ar  176   3.495   3.027   3.339
    1   AR   Ar  177   0.527   2.988  -2.265
    1   AR   Ar  178   2.536   6.971   0.962
    1   AR   Ar  179   2.664   5.903   0.924
    1   AR   Ar  180   4.879   5.824  -6.971
    1   AR   Ar  181   6.635   5.768   1.787
    1   AR   Ar  182   1.057   5.918   2.506
    1   AR   Ar  183   5.277   5.124   1.806
    1   AR   Ar  184   3.376   5.464   0.321
    1   AR   Ar  185   3.211   4.391   4.633
    1   AR   Ar  186   2.868   6.511   3.276
    1   AR   Ar  187   4.055   6.348   3.914
    1   AR   Ar  188   3.578   1.192   1.600
    1   AR   Ar  189   6.049   2.629   6.295
    1   AR   Ar  190   1.835   0.111   4.795
    1   AR   Ar  191   4.194   5.292   4.592
    1   AR   Ar  192   3.867   2.763   7.105
    1   AR   Ar  193   3.090   6.215   2.025
    1   AR   Ar  194   4.640   6.773  -0.418
    1   AR   Ar  195   6.572   1.728   1.811
    1   AR   Ar  196   4.576   6.626   1.140
    1   AR   Ar  197   5.082   3.234   0.099
    1   AR   Ar  198   6.895   6.849   0.175
    1   AR   Ar  199   1.161   0.175   1.985
    1   AR   Ar  200   4.767   1.917   0.824
    1   AR   Ar  201   6.942   5.523   3.736
    1   AR   Ar  202   5.922   1.120   4.705
    1   AR   Ar  203   6.921   0.425   3.350
    1   AR   Ar  204   4.369   5.806   7.468
    1   AR   Ar  205   5.355   1.524   2.306
    1   AR   Ar  206   6.356   0.749   6.673
    1   AR   Ar  207   0.418   3.921   4.358
    1   AR   Ar  208   0.713   6.832   3.603
    1   AR   Ar  209   5.700   3.190  -1.013
    1   AR   Ar  210   3.568   2.803   0.630
    1   AR   Ar  211   6.687   3.479   0.447
    1   AR   Ar  212   5.755   4.812   0.356
    1   AR   Ar  213   3.815   1.638   0.579
    1   AR   Ar  214   5.110   4.485   1.052
    1   AR   Ar  215   0.627   2.804   2.319
    1   AR   Ar  216   2.029   2.403  -0.070
    1   AR   Ar  217   5.236   2.053   4.128
    1   AR   Ar  218   3.884   2.546   5.408
    1   AR   Ar  219   4.390   4.530   2.309
    1   AR   Ar  220   4.259   5.020   0.540
    1   AR   Ar  221   6.475   6.394   3.483
    1   AR   Ar  222   5.972   7.095   5.760
    1   AR   Ar  223   0.124   0.765   5.951
    1   AR   Ar  224   4.813   1.472   5.012
    1   AR   Ar  225   6.172   2.693   2.239
    1   AR   Ar  226   2.713   3.522   3.976
    1   AR   Ar  227   1.507   2.702   3.595
    1   AR   Ar  228   6.178   0.591   2.289
    1   AR   Ar  229   5.736   3.927  -0.360
    1   AR   Ar  230   3.882   4.377   3.797
    1   AR   Ar  231   5.538   2.272   3.149
    1   AR   Ar  232   5.234   2.383   1.729
    1   AR   Ar  233   6.910   1.467   3.097
    1   AR   Ar  234   6.337   3.811   4.855
    1   AR   Ar  235   7.071   1.037   4.717
    1   AR   Ar  236   4.199   3.829   4.645
    1   AR   Ar  237   4.154   1.802   7.511
    1   AR   Ar  238   4.614   5.181   6.729
    1   AR   Ar  239   2.278   4.980  10.454
    1   AR   Ar  240   1.668   3.513   7.175
    1   AR   Ar  241   0.752   6.755  -0.525
    1   AR   Ar  242   5.559   6.145   1.706
    1   AR   Ar  243   4.297   5.511   1.673
    1   AR   Ar  244   5.670   6.634   0.638
    1   AR   Ar  245   2.971   1.527   3.323
    1   AR   Ar  246   4.544   6.005  -1.349
    1   AR   Ar  247   7.025   3.286   1.489
    1   AR   Ar  248   5.140   4.935  -0.665
    1   AR   Ar  249   4.531   0.975   0.914
    1   AR   Ar  250   5.514   6.546   4.118
    1   AR   Ar  251   5.335   3.684   4.555
    1   AR   Ar  252   1.931   5.385   1.779
    1   AR   Ar  253   5.062   2.049   6.608
    1   AR   Ar  254   4.219   4.279  13.816
    1   AR   Ar  255   5.021   5.730   9.531
    1   AR   Ar  256   5.854   5.470   3.581
    7.12000  7.12000 12.00000
