Argon-slab
  256
    1   AR   Ar    1   2.515   0.856-30272314240774.293
    1   AR   Ar    2   1.605   4.982-15887432479281.047
    1   AR   Ar    3   6.678   2.258-30272314356572.520
    1   AR   Ar    4   6.384   0.434-30272314009791.270
    1   AR   Ar    5   2.206   4.547-15837800568881.879
    1   AR   Ar    6   2.170   4.539-30272307614779.980
    1   AR   Ar    7   3.659   1.328-14762040906491.594
    1   AR   Ar    8   2.615   1.966-8271709491556.763
    1   AR   Ar    9   5.419   4.084-30272314024352.461
    1   AR   Ar   10   6.443   6.963-30272314020175.590
    1   AR   Ar   11   4.286   4.449-30272313876536.613
    1   AR   Ar   12   4.297   1.754-15699325797431.867
    1   AR   Ar   13   6.507   3.217-9870673856074.143
    1   AR   Ar   14   3.097   5.259-12877569281874.352
    1   AR   Ar   15   6.536   2.399-30272314011358.594
    1   AR   Ar   16   1.457   5.420-12180438056954.803
    1   AR   Ar   17   6.002   2.690-13226297008739.170
    1   AR   Ar   18   3.781   3.936-30272314009843.621
    1   AR   Ar   19   4.480   0.568-19996920046390.062
    1   AR   Ar   20   4.162   5.470-30272314012135.715
    1   AR   Ar   21   2.390   3.414-30272315617280.383
    1   AR   Ar   22   3.113   2.577-5164995296690.288
    1   AR   Ar   23   1.368   1.924-30272313825255.332
    1   AR   Ar   24   4.241   0.392-15683679571288.025
    1   AR   Ar   25   0.708   5.935-11189177298741.230
    1   AR   Ar   26   4.653   2.677-30272313994366.414
    1   AR   Ar   27   4.009   4.115-9684547801492.180
    1   AR   Ar   28   5.503   4.625-30272314461167.906
    1   AR   Ar   29   1.912   1.571-30273367530168.953
    1   AR   Ar   30   6.460   5.496-18185503211057.375
    1   AR   Ar   31   0.398   0.379-30272305816948.500
    1   AR   Ar   32   5.315   6.764-30272314009780.844
    1   AR   Ar   33   7.009   2.000-30272203865824.676
    1   AR   Ar   34   4.552   3.061-30272314009941.859
    1   AR   Ar   35   1.540   5.645-24785177714364.203
    1   AR   Ar   36   6.977   4.336-30272313959010.742
    1   AR   Ar   37   2.923   2.663-13718900572762.002
    1   AR   Ar   38   3.960   5.510-30273156229699.758
    1   AR   Ar   39   7.096   0.894-10873712321678.098
    1   AR   Ar   40   1.339   3.365-30272313231629.207
    1   AR   Ar   41   3.467   4.494-30272311729338.152
    1   AR   Ar   42   0.169   6.133-4956744482157.753
    1   AR   Ar   43   6.400   5.061-11252596385625.361
    1   AR   Ar   44   6.998   0.336-30269659198271.867
    1   AR   Ar   45   2.634   0.244-12760274967697.840
    1   AR   Ar   46   1.698   0.498-11800927268214.326
    1   AR   Ar   47   3.984   5.484-30500318997177.254
    1   AR   Ar   48   3.274   0.276-30272314224260.070
    1   AR   Ar   49   6.737   0.652-14938536447169.414
    1   AR   Ar   50   1.654   6.713-30273034722527.961
    1   AR   Ar   51   5.126   6.741-7890335059124.092
    1   AR   Ar   52   4.148   1.226-14153919237096.852
    1   AR   Ar   53   6.957   3.494-24186873068596.238
    1   AR   Ar   54   4.361   4.292-30272314013042.617
    1   AR   Ar   55   6.807   7.017-17002385874197.654
    1   AR   Ar   56   2.831   4.864-15494122482053.764
    1   AR   Ar   57   4.353   5.896-28814278219499.215
    1   AR   Ar   58   4.686   4.337-21871984293947.551
    1   AR   Ar   59   5.197   4.416-30273021225446.836
    1   AR   Ar   60   5.613   4.813-30272313892443.684
    1   AR   Ar   61   5.974   0.362-29282257523840.906
    1   AR   Ar   62   6.015   3.309-17078575428947.088
    1   AR   Ar   63   2.069   7.106-30272314285951.730
    1   AR   Ar   64   0.836   5.634-30273017747596.566
    1   AR   Ar   65   4.407   5.308-30272292391851.789
    1   AR   Ar   66   0.604   2.185-16244294569657.416
    1   AR   Ar   67   4.895   3.326-29991583467263.543
    1   AR   Ar   68   0.995   4.678-19254522857251.645
    1   AR   Ar   69   2.405   6.959-27181184895038.508
    1   AR   Ar   70   1.981   3.824-8397150018439.276
    1   AR   Ar   71   4.676   1.303-30271993867741.656
    1   AR   Ar   72   3.600   6.025-18495516003690.852
    1   AR   Ar   73   5.511   0.399-30272313558213.441
    1   AR   Ar   74   7.008   1.931-19121325283155.996
    1   AR   Ar   75   2.152   3.192-30272314146123.590
    1   AR   Ar   76   2.806   5.751-18788855773200.980
    1   AR   Ar   77   2.252   6.464-9207755715982.539
    1   AR   Ar   78   4.326   5.347-13491023190627.963
    1   AR   Ar   79   4.677   2.873-24104836018702.375
    1   AR   Ar   80   5.157   3.959-30272320757560.051
    1   AR   Ar   81   4.054   5.778-14972152898532.592
    1   AR   Ar   82   5.043   3.013-30272311669744.297
    1   AR   Ar   83   0.304   0.898-30272313676761.594
    1   AR   Ar   84   3.128   1.340-6012470369869.494
    1   AR   Ar   85   3.080   0.818-11551976961276.779
    1   AR   Ar   86   5.961   3.191-30272313705287.004
    1   AR   Ar   87   2.521   6.318-15572322290068.156
    1   AR   Ar   88   6.197   4.503-15117003727877.014
    1   AR   Ar   89   6.449   6.408-28922327911668.332
    1   AR   Ar   90   1.479   2.544-30272314006469.559
    1   AR   Ar   91   4.427   6.085-18040128726564.203
    1   AR   Ar   92   1.028   7.099-4751184984658.898
    1   AR   Ar   93   0.188   6.126-4985093764884.364
    1   AR   Ar   94   5.656   3.423-30272322935211.156
    1   AR   Ar   95   1.324   1.996-11786669901974.471
    1   AR   Ar   96   3.691   3.193-9341327960773.494
    1   AR   Ar   97   5.606   6.634-22651708240052.172
    1   AR   Ar   98   4.173   4.5241617024554704398.250
    1   AR   Ar   99   6.888   7.018-30272657140667.398
    1   AR   Ar  100   2.408   1.0952190060257937909.750
    1   AR   Ar  101   1.404   2.908-30272312863007.770
    1   AR   Ar  102   0.960   3.843-27265554967359.840
    1   AR   Ar  103   0.860   7.084-9308643310876.455
    1   AR   Ar  104   5.754   2.551-11605411451411.984
    1   AR   Ar  105   4.290   2.138-11751614594016.051
    1   AR   Ar  106   5.096   5.759-24083185774359.305
    1   AR   Ar  107   3.538   0.486-30273022697112.184
    1   AR   Ar  108   5.147   4.596-11566327947953.980
    1   AR   Ar  109   3.163   3.905-9286260542910.936
    1   AR   Ar  110   0.890   0.957-9831245141472.123
    1   AR   Ar  111   4.309   5.927-14143229438570.502
    1   AR   Ar  112   5.107   6.900-30273033809667.484
    1   AR   Ar  113   6.403   1.485-271863671933828.719
    1   AR   Ar  114   3.627   5.503-30272314146493.805
    1   AR   Ar  115   5.759   2.616-7306581101899.957
    1   AR   Ar  116   3.648   2.057-30276065899495.227
    1   AR   Ar  117   2.167   0.705-569600121239587.875
    1   AR   Ar  118   3.080   1.857-14622552395312.564
    1   AR   Ar  119   6.001   1.412-8363185071115.731
    1   AR   Ar  120   3.698   4.167-22977688482581.480
    1   AR   Ar  121   4.303   0.838-14583551053565.525
    1   AR   Ar  122   1.095   6.668-30272314012818.613
    1   AR   Ar  123   5.765   4.044-18810292048142.910
    1   AR   Ar  124   5.688   6.551-17029338373627.469
    1   AR   Ar  125   1.104   4.379-7042743304037.551
    1   AR   Ar  126   1.593   5.255-9580349917905.732
    1   AR   Ar  127   6.802   2.774-11076891914633.158
    1   AR   Ar  128   4.266   6.675-10097756600268.494
    1   AR   Ar  129   0.246   3.564-6492911262953.064
    1   AR   Ar  130   0.603   0.708-12040005779300.504
    1   AR   Ar  131   4.048   2.580-30272314020538.875
    1   AR   Ar  132   4.116   6.101-14602865774248.789
    1   AR   Ar  133   2.559   2.730-30272317655303.547
    1   AR   Ar  134   5.112   4.902-28588994144772.496
    1   AR   Ar  135   0.986   3.942-6351286499207.545
    1   AR   Ar  136   2.760   4.766-30272314011085.352
    1   AR   Ar  137   0.376   5.265-30272313987257.930
    1   AR   Ar  138   4.683   6.523-30272314007923.164
    1   AR   Ar  139   2.947   1.088-15586396658298.818
    1   AR   Ar  140   4.592   3.661-30272313980809.457
    1   AR   Ar  141   2.625   1.275-30272314026702.859
    1   AR   Ar  142   3.761   0.537-14705702640914.947
    1   AR   Ar  143   1.348   3.012-22965267723675.855
    1   AR   Ar  144   2.453   3.044-10259712412222.449
    1   AR   Ar  145   0.360   0.098-25545330107836.590
    1   AR   Ar  146   3.898   6.460-30272314084355.406
    1   AR   Ar  147   4.000   3.715-30272313986307.895
    1   AR   Ar  148   4.151   4.939-9384074831501.818
    1   AR   Ar  149   2.761   6.656-12806466177506.775
    1   AR   Ar  150   5.873   6.800-30272313677685.363
    1   AR   Ar  151   2.186   3.689-30272313987442.488
    1   AR   Ar  152   6.017   5.291-30272316127386.348
    1   AR   Ar  153   2.815   6.479-30273018653563.215
    1   AR   Ar  154   5.551   3.170-10930955439483.078
    1   AR   Ar  155   2.137   5.761-30272314011744.434
    1   AR   Ar  156   2.892   3.293-21945342637439.375
    1   AR   Ar  157   2.771   2.973-8746183507136.255
    1   AR   Ar  158   4.942   5.897-30272314004104.820
    1   AR   Ar  159   0.640   1.989-9875947132626.844
    1   AR   Ar  160   3.081   3.434-10024604707867.508
    1   AR   Ar  161   5.891   5.998-5653968434728.421
    1   AR   Ar  162   4.079   6.155-30272124643072.887
    1   AR   Ar  163   2.330   2.034-20607620261212.141
    1   AR   Ar  164   0.098   5.195-30272314012122.676
    1   AR   Ar  165   0.355   6.941-30272314013410.801
    1   AR   Ar  166   2.286   6.592-4848417087173.679
    1   AR   Ar  167   4.980   4.916-17123994273693.602
    1   AR   Ar  168   2.723   2.453-16767772232270.115
    1   AR   Ar  169   2.621   0.652-7140044705786.865
    1   AR   Ar  170   0.144   2.506-15815170988747.779
    1   AR   Ar  171   2.257   6.365-30272314034348.953
    1   AR   Ar  172   0.983   0.269-30272312358501.297
    1   AR   Ar  173   3.041   5.419-4488257635405.765
    1   AR   Ar  174   1.022   1.061-6007901675589.829
    1   AR   Ar  175   5.447   4.125-8271143311873.802
    1   AR   Ar  176   1.330   0.578-9328987158869.215
    1   AR   Ar  177   0.636   0.271-30272314054236.039
    1   AR   Ar  178   5.010   1.069-30272313778962.730
    1   AR   Ar  179   0.585   2.204-14579859071257.324
    1   AR   Ar  180   6.748   2.467-9351276074923.398
    1   AR   Ar  181   0.507   6.805-6945119183885.955
    1   AR   Ar  182   4.617   0.915-30272620131580.801
    1   AR   Ar  183   3.591   6.861-14080361688123.869
    1   AR   Ar  184   1.176   5.715-7558840559078.845
    1   AR   Ar  185   7.030   5.338-5960218869836.477
    1   AR   Ar  186   0.229   5.937-12562058298818.273
    1   AR   Ar  187   3.916   5.188-22510775214622.387
    1   AR   Ar  188   6.771   5.031-30261363466141.160
    1   AR   Ar  189   0.681   2.083-30272314009808.781
    1   AR   Ar  190   6.340   4.395-30273034150088.562
    1   AR   Ar  191   6.040   5.796-28237481666723.652
    1   AR   Ar  192   3.822   0.758-30272313997459.484
    1   AR   Ar  193   1.896   3.778-9407524987752.338
    1   AR   Ar  194   3.832   5.572-9448905251291.041
    1   AR   Ar  195   3.925   0.114-30272499115826.539
    1   AR   Ar  196   0.079   1.808-15128363669524.982
    1   AR   Ar  197   3.362   5.553-30272407824869.602
    1   AR   Ar  198   3.495   0.870-30255003797912.219
    1   AR   Ar  199   0.348   0.121-9787087163367.928
    1   AR   Ar  200   5.245   4.422-22746564237325.566
    1   AR   Ar  201   6.698   0.982-4579705724935.814
    1   AR   Ar  202   2.226   0.876-11511782452174.277
    1   AR   Ar  203   2.335   3.110-9053622137071.480
    1   AR   Ar  204   5.861   6.687-6993377804870.628
    1   AR   Ar  205   3.297   6.265-30272314027506.953
    1   AR   Ar  206   2.092   1.885-7570128279803.184
    1   AR   Ar  207   3.331   1.887-10268402526565.547
    1   AR   Ar  208   2.556   2.504-6890134144055.315
    1   AR   Ar  209   6.009   2.8302515754759265717.500
    1   AR   Ar  210   7.000   1.105-12452427491282.551
    1   AR   Ar  211   1.821   2.108-14670472405270.697
    1   AR   Ar  212   1.436   6.245-17483884659547.549
    1   AR   Ar  213   3.305   1.831-7866686323192.479
    1   AR   Ar  214   3.149   3.981-30272313998515.332
    1   AR   Ar  215   3.836   1.737-29950645934077.383
    1   AR   Ar  216   3.357   5.577-30272267783728.848
    1   AR   Ar  217   0.268   7.020-30272314002152.312
    1   AR   Ar  218   7.002   6.043-15508360897969.826
    1   AR   Ar  219   2.367   5.802-13429049161604.350
    1   AR   Ar  220   2.511   4.340-24079629260670.625
    1   AR   Ar  221   3.016   6.491-10427240284429.949
    1   AR   Ar  222   1.056   2.937-13147011335404.248
    1   AR   Ar  223   1.504   3.446-30272314007172.438
    1   AR   Ar  224   6.622   4.969-16052804735379.084
    1   AR   Ar  225   6.418   0.097-9272336099477.676
    1   AR   Ar  226   1.927   3.974-30272424153803.070
    1   AR   Ar  227   0.562   6.721-30272313927876.328
    1   AR   Ar  228   1.895   0.028-30272313716286.273
    1   AR   Ar  229   1.221   1.052-17396016935196.496
    1   AR   Ar  230   2.682   3.818-24180088065934.391
    1   AR   Ar  231   4.389   6.000-30272314034707.609
    1   AR   Ar  232   1.438   1.695-30272313621277.820
    1   AR   Ar  233   4.273   3.874-30272313994860.570
    1   AR   Ar  234   4.255   0.953-30272314004139.934
    1   AR   Ar  235   5.271   3.781-14694894082832.117
    1   AR   Ar  236   5.068   1.948-30272314005421.887
    1   AR   Ar  237   4.839   3.626-30272308434585.613
    1   AR   Ar  238   6.658   2.157-11821667932834.709
    1   AR   Ar  239   2.798   2.963-30272314021520.031
    1   AR   Ar  240   2.963   3.318-11571838869690.283
    1   AR   Ar  241   4.774   1.889-22412030161050.941
    1   AR   Ar  242   5.710   6.370-7080358620895.979
    1   AR   Ar  243   4.672   4.118-11596416987318.670
    1   AR   Ar  244   6.755   4.840-24100676612079.379
    1   AR   Ar  245   0.726   1.226-14230460796382.031
    1   AR   Ar  246   2.765   0.901-30272314028879.535
    1   AR   Ar  247   1.951   7.054-30272314004905.918
    1   AR   Ar  248   0.145   5.516-30272007888056.945
    1   AR   Ar  249   2.855   3.143-27071669157980.957
    1   AR   Ar  250   0.773   0.853-11760261220659.105
    1   AR   Ar  251   2.919   4.089-351487797511644.062
    1   AR   Ar  252   5.598   2.086-14679484337791.309
    1   AR   Ar  253   6.664   3.137-7365952785329.591
    1   AR   Ar  254   1.312   3.171-14811081224555.791
    1   AR   Ar  255   3.195   1.211-24108556333860.527
    1   AR   Ar  256   6.338   0.345-30272314003717.848
   7.12000   7.12000  12.00000
