Argon-slab
  256
    1   AR   Ar    1   6.442   3.536  -1.603
    1   AR   Ar    2   6.503   1.937   0.518
    1   AR   Ar    3   1.735   6.446   1.206
    1   AR   Ar    4   0.501   6.681   1.638
    1   AR   Ar    5   1.101   5.243   2.331
    1   AR   Ar    6   5.432   1.311   4.343
    1   AR   Ar    7   3.254   0.180   2.135
    1   AR   Ar    8   1.544   1.446   0.758
    1   AR   Ar    9   1.184   4.069   2.022
    1   AR   Ar   10   1.386   1.569   6.082
    1   AR   Ar   11   0.371   1.212   4.565
    1   AR   Ar   12   2.396   6.788   4.856
    1   AR   Ar   13   5.543   6.533   6.235
    1   AR   Ar   14   6.285   1.493   3.653
    1   AR   Ar   15   0.106   0.414   5.151
    1   AR   Ar   16   6.527   1.787   4.734
    1   AR   Ar   17   5.286   3.643  -2.101
    1   AR   Ar   18   0.610   3.417  -0.747
    1   AR   Ar   19   2.862   2.588   0.654
    1   AR   Ar   20   0.898   0.397  -4.211
    1   AR   Ar   21   6.942   0.355   1.919
    1   AR   Ar   22   7.035   3.694   2.744
    1   AR   Ar   23   6.872   1.149   2.755
    1   AR   Ar   24   3.040   4.226  -0.282
    1   AR   Ar   25   4.862   1.042   2.490
    1   AR   Ar   26   1.520   1.282   3.464
    1   AR   Ar   27   1.207   0.701   5.257
    1   AR   Ar   28   0.088   1.968   3.758
    1   AR   Ar   29   6.352   1.913   7.037
    1   AR   Ar   30   4.213   6.340   3.575
    1   AR   Ar   31   1.229   2.621   5.899
    1   AR   Ar   32   0.454   0.776   6.685
    1   AR   Ar   33   6.655   2.862   3.482
    1   AR   Ar   34   5.655   1.445   0.639
    1   AR   Ar   35   2.560   2.769   1.628
    1   AR   Ar   36   6.997   3.324   1.183
    1   AR   Ar   37   2.283   3.721   4.410
    1   AR   Ar   38   1.087   6.335   3.888
    1   AR   Ar   39   0.530   0.558   3.156
    1   AR   Ar   40   2.948   4.633   0.903
    1   AR   Ar   41   5.137   2.150   4.849
    1   AR   Ar   42   6.067   5.077   3.929
    1   AR   Ar   43   0.309   3.693   6.662
    1   AR   Ar   44   2.080   4.770   2.475
    1   AR   Ar   45   4.393   6.362   7.024
    1   AR   Ar   46   6.455   0.888   5.698
    1   AR   Ar   47   1.711   2.519  10.330
    1   AR   Ar   48   2.681   5.532   8.239
    1   AR   Ar   49   3.716   0.602  -0.386
    1   AR   Ar   50   1.901   6.134  -1.372
    1   AR   Ar   51   4.000   5.729  -1.781
    1   AR   Ar   52   3.204   1.289   1.010
    1   AR   Ar   53   6.564   5.896   2.751
    1   AR   Ar   54   0.321   5.626   1.533
    1   AR   Ar   55   0.989   4.804   0.957
    1   AR   Ar   56   2.535   5.795   0.863
    1   AR   Ar   57   0.173   6.885   3.941
    1   AR   Ar   58   5.773   0.526   3.527
    1   AR   Ar   59   0.174   1.607   5.414
    1   AR   Ar   60   0.169   5.762   4.143
    1   AR   Ar   61   0.998   5.356   3.466
    1   AR   Ar   62   7.118   2.964   6.077
    1   AR   Ar   63   0.770   5.207   7.247
    1   AR   Ar   64   2.184   4.640   7.063
    1   AR   Ar   65   2.103   1.959  -0.087
    1   AR   Ar   66   2.001   6.527   3.208
    1   AR   Ar   67   4.740   7.025   1.831
    1   AR   Ar   68   4.304   1.087   0.984
    1   AR   Ar   69   2.183   0.948   2.600
    1   AR   Ar   70   3.213   1.844   3.649
    1   AR   Ar   71   3.835   2.218   0.663
    1   AR   Ar   72   0.712   0.461   1.038
    1   AR   Ar   73   6.519   0.783   4.405
    1   AR   Ar   74   2.629   1.356   4.548
    1   AR   Ar   75   4.486   1.236   6.236
    1   AR   Ar   76   4.602   2.535   1.349
    1   AR   Ar   77   2.398   6.285   6.783
    1   AR   Ar   78   2.519   1.060   7.072
    1   AR   Ar   79   4.022   6.641   4.783
    1   AR   Ar   80   5.535   0.860   7.854
    1   AR   Ar   81   7.000   4.357  -0.741
    1   AR   Ar   82   2.681   5.543  -0.431
    1   AR   Ar   83   5.309   5.625   1.732
    1   AR   Ar   84   2.761   1.928  -1.646
    1   AR   Ar   85   3.527   3.117   1.524
    1   AR   Ar   86   3.142   4.094   4.043
    1   AR   Ar   87   0.229   3.290   4.023
    1   AR   Ar   88   3.120   4.157   1.857
    1   AR   Ar   89   1.589   1.592   5.078
    1   AR   Ar   90   3.133   3.401   5.806
    1   AR   Ar   91   3.482   1.465   5.682
    1   AR   Ar   92   1.954   2.577   4.423
    1   AR   Ar   93   3.961   6.471   7.949
    1   AR   Ar   94   0.412   3.957   5.365
    1   AR   Ar   95   1.370   4.155   4.649
    1   AR   Ar   96   4.764   3.125   4.412
    1   AR   Ar   97   1.040   7.019   0.014
    1   AR   Ar   98   2.608   0.584   0.104
    1   AR   Ar   99   4.140   5.083   1.182
    1   AR   Ar  100   3.917   2.207  -2.009
    1   AR   Ar  101   1.345   3.265  -2.110
    1   AR   Ar  102   5.285   4.274   2.031
    1   AR   Ar  103   0.920   2.888   8.010
    1   AR   Ar  104   5.021   5.819   2.960
    1   AR   Ar  105   2.774   5.308   5.695
    1   AR   Ar  106   7.111   4.831   2.928
    1   AR   Ar  107   3.207   4.949   4.733
    1   AR   Ar  108   2.463   5.527   4.275
    1   AR   Ar  109   1.814   3.598   6.704
    1   AR   Ar  110   1.176   6.436  11.860
    1   AR   Ar  111   1.036   3.283   4.934
    1   AR   Ar  112   0.771   2.294   4.746
    1   AR   Ar  113   6.598   2.942  -4.348
    1   AR   Ar  114   3.075   5.349   2.108
    1   AR   Ar  115   0.982   6.959  -1.047
    1   AR   Ar  116   0.053   5.849   0.364
    1   AR   Ar  117   2.361   0.610   3.927
    1   AR   Ar  118   3.491   6.401   2.672
    1   AR   Ar  119   3.342   0.237   5.095
    1   AR   Ar  120   4.353   2.782  -0.118
    1   AR   Ar  121   7.064   2.665   5.104
    1   AR   Ar  122   0.315   6.168   3.113
    1   AR   Ar  123   2.137   6.610   5.820
    1   AR   Ar  124   3.446   6.491   0.772
    1   AR   Ar  125   1.068   4.689   5.804
    1   AR   Ar  126   3.184   6.561   6.024
    1   AR   Ar  127   3.152   5.234   6.678
    1   AR   Ar  128   1.777   7.090   9.700
    1   AR   Ar  129   3.139   5.041  -1.833
    1   AR   Ar  130   5.144   3.172  -0.982
    1   AR   Ar  131   6.073   3.354   2.165
    1   AR   Ar  132   3.683   3.143  -1.516
    1   AR   Ar  133   3.971   2.057   2.911
    1   AR   Ar  134   4.493   0.384   4.230
    1   AR   Ar  135   4.559   0.262   3.181
    1   AR   Ar  136   1.706   4.830   0.040
    1   AR   Ar  137   1.957   5.063   1.398
    1   AR   Ar  138   1.229   0.212   2.263
    1   AR   Ar  139   5.809   2.177   1.276
    1   AR   Ar  140   2.240   4.064   3.183
    1   AR   Ar  141   4.200   5.283   6.252
    1   AR   Ar  142   6.165   1.840   5.849
    1   AR   Ar  143   3.967   5.239   8.353
    1   AR   Ar  144   2.153   0.904   5.952
    1   AR   Ar  145   1.256   2.898   1.377
    1   AR   Ar  146   3.940   1.792   1.614
    1   AR   Ar  147   2.540   3.095  -0.582
    1   AR   Ar  148   6.006   5.075  -1.599
    1   AR   Ar  149   2.292   2.792  -1.739
    1   AR   Ar  150   2.538   2.419   5.841
    1   AR   Ar  151   3.164   2.991   4.027
    1   AR   Ar  152   5.101   2.711   2.346
    1   AR   Ar  153   2.284   0.405   1.487
    1   AR   Ar  154   3.529   0.738   3.578
    1   AR   Ar  155   1.132   7.076   5.969
    1   AR   Ar  156   6.026   1.788   2.328
    1   AR   Ar  157   3.778   1.445   7.202
    1   AR   Ar  158   0.518   6.194   7.160
    1   AR   Ar  159   3.069   2.248   4.934
    1   AR   Ar  160   3.291   2.340   7.502
    1   AR   Ar  161   3.651   0.274  -3.945
    1   AR   Ar  162   5.755   4.939   2.892
    1   AR   Ar  163   5.472   4.963  -0.455
    1   AR   Ar  164   4.255   5.009  -0.619
    1   AR   Ar  165   4.899   4.104   3.831
    1   AR   Ar  166   6.042   3.904   4.009
    1   AR   Ar  167   5.412   3.601   3.019
    1   AR   Ar  168   6.313   6.089   0.651
    1   AR   Ar  169   5.654   0.270   4.629
    1   AR   Ar  170   6.216   3.712   5.260
    1   AR   Ar  171   3.966   2.420   4.018
    1   AR   Ar  172   4.514   2.418   8.620
    1   AR   Ar  173   3.494   4.378   5.764
    1   AR   Ar  174   3.580   7.085   7.165
    1   AR   Ar  175   3.461   1.899   8.583
    1   AR   Ar  176   6.082   2.931   4.363
    1   AR   Ar  177   1.912   3.655  -1.102
    1   AR   Ar  178   5.748   4.117  -1.119
    1   AR   Ar  179   4.291   3.703   2.351
    1   AR   Ar  180   0.135   0.238  -3.102
    1   AR   Ar  181   3.003   3.214   2.910
    1   AR   Ar  182   1.890   6.439   0.097
    1   AR   Ar  183   3.503   3.243   0.085
    1   AR   Ar  184   4.403   3.852  -0.428
    1   AR   Ar  185   3.323   4.331   2.898
    1   AR   Ar  186   1.068   5.639   4.682
    1   AR   Ar  187   5.994   6.210   3.683
    1   AR   Ar  188   5.936   5.934   4.955
    1   AR   Ar  189   0.400   6.516   4.888
    1   AR   Ar  190   2.617   5.618   3.160
    1   AR   Ar  191   6.413   6.707   5.202
    1   AR   Ar  192   0.112   4.477   4.024
    1   AR   Ar  193   4.846   4.648  -1.736
    1   AR   Ar  194   6.926   1.389   1.643
    1   AR   Ar  195   4.709   4.585   2.965
    1   AR   Ar  196   5.856   0.910  -0.545
    1   AR   Ar  197   5.426   0.977   1.559
    1   AR   Ar  198   5.096   6.597   4.103
    1   AR   Ar  199   0.866   2.623   3.489
    1   AR   Ar  200   0.371   1.332   0.448
    1   AR   Ar  201   3.241   6.856   3.852
    1   AR   Ar  202   5.718   6.862   1.287
    1   AR   Ar  203   6.456   0.107   6.390
    1   AR   Ar  204   1.051   1.428   1.869
    1   AR   Ar  205   4.251   0.004   6.150
    1   AR   Ar  206   4.058   1.658   4.827
    1   AR   Ar  207   0.201   1.939   6.329
    1   AR   Ar  208   5.929   0.536   2.249
    1   AR   Ar  209   0.997   1.279  -1.496
    1   AR   Ar  210   0.668   2.847   2.538
    1   AR   Ar  211   6.678   0.723   0.833
    1   AR   Ar  212   4.598   4.233  -3.585
    1   AR   Ar  213   5.377   2.467  -0.103
    1   AR   Ar  214   1.099   3.699   0.575
    1   AR   Ar  215   6.529   3.687   0.171
    1   AR   Ar  216   0.559   2.401  -1.451
    1   AR   Ar  217   2.942   2.072   2.630
    1   AR   Ar  218   4.992   3.302   0.630
    1   AR   Ar  219   3.690   3.645   4.767
    1   AR   Ar  220   2.999   3.281   6.767
    1   AR   Ar  221   5.945   4.123   6.507
    1   AR   Ar  222   3.892   3.502   7.435
    1   AR   Ar  223   6.474   0.184  10.019
    1   AR   Ar  224   3.967   2.694   5.323
    1   AR   Ar  225   0.728   1.681  -0.481
    1   AR   Ar  226   1.950   3.595   5.706
    1   AR   Ar  227   0.218   2.313   1.046
    1   AR   Ar  228   7.097   0.063  -1.401
    1   AR   Ar  229   2.803   0.100   3.028
    1   AR   Ar  230   5.202   2.187   3.611
    1   AR   Ar  231   6.031   4.615   1.236
    1   AR   Ar  232   2.643   6.485   1.815
    1   AR   Ar  233   1.278   0.219   3.975
    1   AR   Ar  234   1.089   3.624   3.498
    1   AR   Ar  235   5.243   1.989   6.823
    1   AR   Ar  236   4.050   3.478   3.648
    1   AR   Ar  237   2.096   4.503   5.262
    1   AR   Ar  238   7.064   4.608   6.154
    1   AR   Ar  239   4.950   5.263   3.939
    1   AR   Ar  240   5.899   4.924   5.749
    1   AR   Ar  241   6.613   2.060  -0.957
    1   AR   Ar  242   7.007   2.504   2.029
    1   AR   Ar  243   4.029   4.089   1.070
    1   AR   Ar  244   5.345   6.799   3.003
    1   AR   Ar  245   5.049   5.780   5.642
    1   AR   Ar  246   0.213   5.549   5.361
    1   AR   Ar  247   7.024   4.463   1.874
    1   AR   Ar  248   3.860   6.323   1.690
    1   AR   Ar  249   2.238   3.887   1.153
    1   AR   Ar  250   4.904   0.042   5.309
    1   AR   Ar  251   1.980   3.403   2.212
    1   AR   Ar  252   6.641   7.026   2.996
    1   AR   Ar  253   6.201   6.253   9.468
    1   AR   Ar  254   3.031   0.594   6.325
    1   AR   Ar  255   4.771   5.910   8.508
    1   AR   Ar  256   3.669   5.711   5.428
    7.12000  7.12000 12.00000
