Argon-slab
  256
    1   AR   Ar    1   5.514   1.433  -1.128
    1   AR   Ar    2   2.135   0.821   3.457
    1   AR   Ar    3   1.218   3.397  -0.543
    1   AR   Ar    4   6.781   3.286  -0.076
    1   AR   Ar    5   0.429   2.917   4.585
    1   AR   Ar    6   2.973   5.006   1.715
    1   AR   Ar    7   2.265   0.500   5.926
    1   AR   Ar    8   1.535   6.320   2.382
    1   AR   Ar    9   4.406   1.267   6.072
    1   AR   Ar   10   6.129   3.812   1.300
    1   AR   Ar   11   1.318   0.977   5.752
    1   AR   Ar   12   6.623   0.460  14.602
    1   AR   Ar   13   6.057   0.558  10.319
    1   AR   Ar   14   2.578   5.748   6.770
    1   AR   Ar   15   3.158   6.486   6.086
    1   AR   Ar   16   2.196   4.554   4.720
    1   AR   Ar   17   5.721   1.739  -3.197
    1   AR   Ar   18   7.081   4.512   2.342
    1   AR   Ar   19   2.764   4.287   2.490
    1   AR   Ar   20   3.226   6.351   2.692
    1   AR   Ar   21   4.142   5.141   1.501
    1   AR   Ar   22   0.095   1.615   6.362
    1   AR   Ar   23   5.611   4.001   2.946
    1   AR   Ar   24   1.472   5.104   1.782
    1   AR   Ar   25   0.768   5.184   2.604
    1   AR   Ar   26   1.466   6.916   3.581
    1   AR   Ar   27   0.466   1.838   4.486
    1   AR   Ar   28   5.827   1.591  -0.153
    1   AR   Ar   29   5.706   6.859   3.896
    1   AR   Ar   30   4.687   6.178   7.200
    1   AR   Ar   31   3.102   1.179  13.054
    1   AR   Ar   32   4.231   0.549   1.627
    1   AR   Ar   33   2.429   3.899  -0.662
    1   AR   Ar   34   3.923   0.055   2.801
    1   AR   Ar   35   0.730   5.932   1.677
    1   AR   Ar   36   2.464   2.000   1.304
    1   AR   Ar   37   0.321   6.244  -2.555
    1   AR   Ar   38   2.325   6.264   3.410
    1   AR   Ar   39   6.407   3.224  12.615
    1   AR   Ar   40   3.400   5.167   0.650
    1   AR   Ar   41   4.438   0.507   3.497
    1   AR   Ar   42   6.325   3.628   7.628
    1   AR   Ar   43   3.387   2.462   4.341
    1   AR   Ar   44   0.243   4.750   1.403
    1   AR   Ar   45   4.970   6.798   3.116
    1   AR   Ar   46   3.803   1.579   6.896
    1   AR   Ar   47   3.773   5.142   2.690
    1   AR   Ar   48   4.267   4.643   5.444
    1   AR   Ar   49   5.423   6.969  -1.928
    1   AR   Ar   50   0.649   5.104   3.738
    1   AR   Ar   51   0.391   0.907   5.095
    1   AR   Ar   52   4.053   2.231   1.407
    1   AR   Ar   53   1.452   5.996   4.305
    1   AR   Ar   54   3.969   4.212  -3.662
    1   AR   Ar   55   0.946   4.909  -0.443
    1   AR   Ar   56   4.929   3.515  19.271
    1   AR   Ar   57   4.496   6.097   2.085
    1   AR   Ar   58   6.171   5.292   4.206
    1   AR   Ar   59   6.427   4.950   0.974
    1   AR   Ar   60   5.002   4.943   6.824
    1   AR   Ar   61   0.841   4.148   5.430
    1   AR   Ar   62   6.267   4.502   6.243
    1   AR   Ar   63   1.497   2.130   4.947
    1   AR   Ar   64   0.576   6.077   5.435
    1   AR   Ar   65   6.385   5.599  -1.943
    1   AR   Ar   66   1.943   4.091   1.361
    1   AR   Ar   67   5.171   3.278   1.014
    1   AR   Ar   68   0.043   1.377   1.718
    1   AR   Ar   69   7.044   3.510   1.089
    1   AR   Ar   70   4.593   0.617   5.262
    1   AR   Ar   71   2.529   6.414  -0.394
    1   AR   Ar   72   1.361   2.081  -0.895
    1   AR   Ar   73   6.473   2.101   5.740
    1   AR   Ar   74   2.009   3.006   0.644
    1   AR   Ar   75   5.089   0.944   7.945
    1   AR   Ar   76   6.696   5.210   3.102
    1   AR   Ar   77   4.745   2.862   5.958
    1   AR   Ar   78   5.558   2.523   4.785
    1   AR   Ar   79   0.253   4.924  11.477
    1   AR   Ar   80   2.832   2.753   5.606
    1   AR   Ar   81   6.040   4.028  -1.174
    1   AR   Ar   82   2.829   6.417   0.703
    1   AR   Ar   83   5.036   3.747  -0.604
    1   AR   Ar   84   1.062   1.825   1.523
    1   AR   Ar   85   2.184   1.767   5.936
    1   AR   Ar   86   6.545   0.591   2.099
    1   AR   Ar   87   0.626   3.113  -1.527
    1   AR   Ar   88   6.705   2.173   4.680
    1   AR   Ar   89   4.205   6.211   3.266
    1   AR   Ar   90   0.794   3.146   2.023
    1   AR   Ar   91   2.876   4.107   6.071
    1   AR   Ar   92   7.021   3.882   5.775
    1   AR   Ar   93   4.710   0.498   6.956
    1   AR   Ar   94   5.096   5.278   2.338
    1   AR   Ar   95   1.050   5.050   0.794
    1   AR   Ar   96   0.721   5.186   9.180
    1   AR   Ar   97   5.666   4.163   0.462
    1   AR   Ar   98   5.239   6.205  -1.183
    1   AR   Ar   99   0.462   2.633  -0.109
    1   AR   Ar  100   2.896   4.054   4.030
    1   AR   Ar  101   6.867   6.926   1.468
    1   AR   Ar  102   5.783   0.731   3.668
    1   AR   Ar  103   0.527   0.667   0.959
    1   AR   Ar  104   3.276   1.104   2.667
    1   AR   Ar  105   3.260   0.917   6.125
    1   AR   Ar  106   5.152   3.635   7.228
    1   AR   Ar  107   6.494   6.023   5.793
    1   AR   Ar  108   7.080   5.872  10.270
    1   AR   Ar  109   5.621   1.864   6.324
    1   AR   Ar  110   6.623   3.086   5.226
    1   AR   Ar  111   2.850   0.473   5.053
    1   AR   Ar  112   6.676   2.448   3.725
    1   AR   Ar  113   1.719   5.651  -1.174
    1   AR   Ar  114   6.205   0.361  -1.492
    1   AR   Ar  115   1.727   4.357   2.564
    1   AR   Ar  116   5.692   2.817  -0.062
    1   AR   Ar  117   0.993   0.897   2.243
    1   AR   Ar  118   1.777   4.287   0.226
    1   AR   Ar  119   4.317   1.526  -1.281
    1   AR   Ar  120   5.152   5.552   1.242
    1   AR   Ar  121   0.184   3.519   3.753
    1   AR   Ar  122   6.401   2.183   2.011
    1   AR   Ar  123   5.503   6.699   1.249
    1   AR   Ar  124   4.090   5.571   5.367
    1   AR   Ar  125   3.016   0.106   3.431
    1   AR   Ar  126   5.875   3.308   6.443
    1   AR   Ar  127   4.827   3.597   3.662
    1   AR   Ar  128   3.671   6.421   1.596
    1   AR   Ar  129   4.174   4.246   2.622
    1   AR   Ar  130   3.426   2.532   2.343
    1   AR   Ar  131   5.035   4.404   1.485
    1   AR   Ar  132   2.947   2.051   0.023
    1   AR   Ar  133   0.123   4.297   0.257
    1   AR   Ar  134   4.592   2.887   2.448
    1   AR   Ar  135   0.632   3.929   2.794
    1   AR   Ar  136   1.150   3.087   5.265
    1   AR   Ar  137   6.652   2.905   6.843
    1   AR   Ar  138   2.329   1.107   2.173
    1   AR   Ar  139   2.876   2.948   1.405
    1   AR   Ar  140   6.233   4.450   5.120
    1   AR   Ar  141   1.163   7.006   5.821
    1   AR   Ar  142   1.168   3.681   8.914
    1   AR   Ar  143   6.290   4.214   3.689
    1   AR   Ar  144   2.257   6.821   5.338
    1   AR   Ar  145   0.057   5.991  -6.134
    1   AR   Ar  146   3.110   5.011  -0.577
    1   AR   Ar  147   4.697   5.695   4.130
    1   AR   Ar  148   3.399   1.431   1.570
    1   AR   Ar  149   5.582   1.285   5.260
    1   AR   Ar  150   3.761   1.461   4.471
    1   AR   Ar  151   4.797   1.477   4.274
    1   AR   Ar  152   4.172   4.832   3.762
    1   AR   Ar  153   5.094   5.607  -2.058
    1   AR   Ar  154   2.455   5.260   2.819
    1   AR   Ar  155   2.527   6.238   1.713
    1   AR   Ar  156   3.272   6.345   3.835
    1   AR   Ar  157   5.118   4.128   5.829
    1   AR   Ar  158   0.331   6.754   3.502
    1   AR   Ar  159   3.749   4.826   8.450
    1   AR   Ar  160   6.887   6.974   5.475
    1   AR   Ar  161   2.819   3.874   0.658
    1   AR   Ar  162   2.264   6.823   4.320
    1   AR   Ar  163   0.271   1.016   3.103
    1   AR   Ar  164   2.389   5.134   5.909
    1   AR   Ar  165   6.305   1.185   4.585
    1   AR   Ar  166   5.489   3.470  11.726
    1   AR   Ar  167   5.595   5.783   3.289
    1   AR   Ar  168   2.237   2.591   2.316
    1   AR   Ar  169   2.120   5.404   0.571
    1   AR   Ar  170   6.855   0.250   4.289
    1   AR   Ar  171   2.953   3.721   5.122
    1   AR   Ar  172   3.584   4.018  -0.081
    1   AR   Ar  173   5.292   5.115   5.356
    1   AR   Ar  174   4.147   1.655   7.882
    1   AR   Ar  175   4.393   6.685   8.311
    1   AR   Ar  176   0.314   0.035   2.380
    1   AR   Ar  177   0.672   0.645  -1.858
    1   AR   Ar  178   5.805   5.957   2.035
    1   AR   Ar  179   1.632   1.911   0.293
    1   AR   Ar  180   1.606   6.287   0.889
    1   AR   Ar  181   3.120   4.259  -2.369
    1   AR   Ar  182   4.022   4.018   1.277
    1   AR   Ar  183   6.607   5.818  -0.659
    1   AR   Ar  184   1.326   6.744  -1.329
    1   AR   Ar  185   3.143   0.193   2.211
    1   AR   Ar  186   4.023   1.848   3.414
    1   AR   Ar  187   0.386   5.937   4.312
    1   AR   Ar  188   6.456   6.252   4.558
    1   AR   Ar  189   6.416   6.780   3.051
    1   AR   Ar  190   3.766   0.141   5.512
    1   AR   Ar  191   1.025   2.837   3.043
    1   AR   Ar  192   5.850   0.201   5.003
    1   AR   Ar  193   5.675   0.530   2.656
    1   AR   Ar  194   5.716   3.026   2.220
    1   AR   Ar  195   1.743   0.233   1.576
    1   AR   Ar  196   4.822   0.491  -1.118
    1   AR   Ar  197   6.275   5.960   0.781
    1   AR   Ar  198   0.241   5.326   0.330
    1   AR   Ar  199   6.892   3.429 -11.004
    1   AR   Ar  200   6.708   2.183  -0.840
    1   AR   Ar  201   1.478   1.747   2.713
    1   AR   Ar  202   7.057   3.807   4.674
    1   AR   Ar  203   1.696   5.987   5.756
    1   AR   Ar  204   1.957   3.789   5.554
    1   AR   Ar  205   3.578   6.541  -1.153
    1   AR   Ar  206   4.405   6.885   6.279
    1   AR   Ar  207   3.777   3.362   3.198
    1   AR   Ar  208   4.767   5.914   6.149
    1   AR   Ar  209   5.353   0.766   1.649
    1   AR   Ar  210   1.945   0.058   2.674
    1   AR   Ar  211   6.722   5.535   2.074
    1   AR   Ar  212   0.533   6.233  -0.552
    1   AR   Ar  213   4.214   1.506   2.288
    1   AR   Ar  214   1.558   6.962  -0.334
    1   AR   Ar  215   3.352   0.743  -0.634
    1   AR   Ar  216   2.067   1.118   4.496
    1   AR   Ar  217   5.363   4.537   4.199
    1   AR   Ar  218   0.344   2.311   5.448
    1   AR   Ar  219   3.960   3.935   4.393
    1   AR   Ar  220   4.200   0.142  -0.075
    1   AR   Ar  221   2.068   1.774   6.992
    1   AR   Ar  222   4.289   3.030   5.007
    1   AR   Ar  223   3.982   2.220  13.915
    1   AR   Ar  224   3.398   6.370   4.952
    1   AR   Ar  225   5.385   2.406   3.734
    1   AR   Ar  226   3.619   3.543   2.063
    1   AR   Ar  227   2.286   3.050   4.782
    1   AR   Ar  228   3.129   5.140   4.854
    1   AR   Ar  229   4.132   6.034  -0.182
    1   AR   Ar  230   2.018   2.701  -0.500
    1   AR   Ar  231   6.551   0.997   5.701
    1   AR   Ar  232   6.113   4.701  -2.296
    1   AR   Ar  233   0.860   4.035   4.289
    1   AR   Ar  234   7.069   0.283   9.942
    1   AR   Ar  235   3.884   4.805   6.596
    1   AR   Ar  236   0.896   3.994   0.878
    1   AR   Ar  237   2.449   2.513   3.669
    1   AR   Ar  238   6.367   4.968  -0.023
    1   AR   Ar  239   6.836   3.520   2.673
    1   AR   Ar  240   3.166   1.253   3.669
    1   AR   Ar  241   6.536   2.178   0.205
    1   AR   Ar  242   4.688   2.103  -9.893
    1   AR   Ar  243   6.132   3.213   4.235
    1   AR   Ar  244   0.744   0.782   4.104
    1   AR   Ar  245   1.264   4.946   4.659
    1   AR   Ar  246   5.042   1.319   3.084
    1   AR   Ar  247   4.998   3.595   4.680
    1   AR   Ar  248   5.049   1.976   2.127
    1   AR   Ar  249   3.835   5.927   8.058
    1   AR   Ar  250   5.974   1.534   0.893
    1   AR   Ar  251   1.980   5.201   3.885
    1   AR   Ar  252   5.060   1.911  10.025
    1   AR   Ar  253   4.367   2.597   4.075
    1   AR   Ar  254   1.182   7.064   4.795
    1   AR   Ar  255   5.921   4.751   1.997
    1   AR   Ar  256   4.030   6.903   4.204
    7.12000  7.12000 12.00000
