Argon-bulk
  864
    1   AR   Ar    1   9.695  10.582  10.256
    1   AR   Ar    2   1.463   1.140   1.914
    1   AR   Ar    3   9.670   8.088   2.929
    1   AR   Ar    4  10.549   3.331   9.447
    1   AR   Ar    5   8.822   2.207   2.080
    1   AR   Ar    6   9.493   2.253   4.377
    1   AR   Ar    7   9.585   9.870   2.648
    1   AR   Ar    8   0.060   0.466   1.053
    1   AR   Ar    9   9.504   1.354   2.125
    1   AR   Ar   10   0.035   1.979   4.670
    1   AR   Ar   11   8.291   0.725   4.545
    1   AR   Ar   12   1.277   9.825   5.749
    1   AR   Ar   13   9.879   1.260   7.459
    1   AR   Ar   14  10.116   2.208   8.184
    1   AR   Ar   15   8.991   2.154   6.499
    1   AR   Ar   16   1.086   0.730   7.091
    1   AR   Ar   17   1.947   0.948   6.652
    1   AR   Ar   18   1.149  10.230  10.250
    1   AR   Ar   19   1.070   0.321   8.456
    1   AR   Ar   20   7.775   1.011   7.962
    1   AR   Ar   21  10.230   1.288   0.299
    1   AR   Ar   22   2.015   0.347   1.346
    1   AR   Ar   23   2.775   0.230  10.148
    1   AR   Ar   24   1.210   0.718   9.903
    1   AR   Ar   25   8.276   2.228   0.233
    1   AR   Ar   26   8.370   2.495   1.128
    1   AR   Ar   27   1.454   2.967   1.681
    1   AR   Ar   28   1.515   1.599   9.505
    1   AR   Ar   29  10.180   2.886   3.976
    1   AR   Ar   30  10.099   3.357   1.650
    1   AR   Ar   31   3.465   1.179   3.775
    1   AR   Ar   32   3.718   3.279   9.928
    1   AR   Ar   33  10.652  10.523   5.488
    1   AR   Ar   34   9.890   4.007   4.842
    1   AR   Ar   35  10.105   2.852   5.069
    1   AR   Ar   36  10.455   2.100   3.317
    1   AR   Ar   37   2.333   0.627   5.442
    1   AR   Ar   38   2.272   4.554   6.951
    1   AR   Ar   39   9.066   2.478   5.422
    1   AR   Ar   40   2.207   3.977   3.929
    1   AR   Ar   41  10.159   1.873   6.405
    1   AR   Ar   42   9.599   4.240   8.483
    1   AR   Ar   43   0.087   4.541   8.881
    1   AR   Ar   44   2.166   3.312   4.979
    1   AR   Ar   45  10.211   2.373   9.874
    1   AR   Ar   46   9.415   2.294   0.748
    1   AR   Ar   47   0.416   0.767  10.605
    1   AR   Ar   48   9.875   1.008   8.479
    1   AR   Ar   49  10.497   3.315  10.436
    1   AR   Ar   50   9.858   4.294  10.494
    1   AR   Ar   51   0.403   1.882  10.390
    1   AR   Ar   52   0.306   4.305  10.007
    1   AR   Ar   53   1.695   2.049   2.235
    1   AR   Ar   54   8.849   2.637   9.590
    1   AR   Ar   55   0.608   0.650   5.109
    1   AR   Ar   56   0.427   2.910   1.433
    1   AR   Ar   57   2.458   3.216   1.152
    1   AR   Ar   58   0.235   5.981   5.408
    1   AR   Ar   59   0.654   2.420   5.460
    1   AR   Ar   60  10.571   3.088   2.762
    1   AR   Ar   61   1.699   3.602   5.908
    1   AR   Ar   62  10.337   5.541   6.343
    1   AR   Ar   63   1.843   5.115   5.731
    1   AR   Ar   64   1.571   7.012   5.288
    1   AR   Ar   65   9.220   2.397   7.620
    1   AR   Ar   66  10.670   3.891   6.839
    1   AR   Ar   67   2.485   2.432   5.441
    1   AR   Ar   68   0.692   4.721   7.048
    1   AR   Ar   69   1.936   3.157   6.879
    1   AR   Ar   70   8.884   4.896  10.115
    1   AR   Ar   71   9.451   3.175   9.013
    1   AR   Ar   72   9.609   5.190   8.158
    1   AR   Ar   73  10.442   7.338   0.918
    1   AR   Ar   74   9.377   5.911  10.099
    1   AR   Ar   75   9.889   4.612   1.107
    1   AR   Ar   76   0.932   3.966   0.879
    1   AR   Ar   77   0.737   7.382   1.008
    1   AR   Ar   78   0.393   4.956   2.515
    1   AR   Ar   79   1.775   3.529   3.056
    1   AR   Ar   80  10.643   7.552   2.272
    1   AR   Ar   81   1.383   6.687   2.874
    1   AR   Ar   82   1.112   6.715   6.347
    1   AR   Ar   83   2.239   8.565   3.249
    1   AR   Ar   84   9.375   5.692   3.198
    1   AR   Ar   85   0.474   5.396   7.837
    1   AR   Ar   86   1.504   5.576   7.595
    1   AR   Ar   87   2.835   5.361   5.009
    1   AR   Ar   88   2.238   6.974   3.710
    1   AR   Ar   89  10.176   4.856   7.057
    1   AR   Ar   90   9.196   6.364   8.013
    1   AR   Ar   91   4.106   7.161   6.013
    1   AR   Ar   92   3.032   4.424   6.166
    1   AR   Ar   93  10.342   3.734   5.792
    1   AR   Ar   94   9.704   6.477   9.070
    1   AR   Ar   95   1.367   4.174  10.632
    1   AR   Ar   96  10.074   6.006   7.317
    1   AR   Ar   97   0.343   8.122   0.510
    1   AR   Ar   98   9.518   9.052   1.117
    1   AR   Ar   99   0.972   7.305   2.043
    1   AR   Ar  100   0.719   9.027  10.346
    1   AR   Ar  101   8.570   8.423   1.093
    1   AR   Ar  102   1.781   5.537   2.954
    1   AR   Ar  103   9.440   6.590   1.438
    1   AR   Ar  104   1.350   9.575   0.343
    1   AR   Ar  105   7.696   6.470   1.236
    1   AR   Ar  106   0.963   9.837   4.758
    1   AR   Ar  107   0.775   8.325   6.447
    1   AR   Ar  108   1.515   8.905   4.102
    1   AR   Ar  109  10.512   7.812   8.748
    1   AR   Ar  110   9.633   7.443   6.997
    1   AR   Ar  111   1.999   8.261   6.275
    1   AR   Ar  112   0.213   9.106   4.857
    1   AR   Ar  113   0.213   4.279   7.875
    1   AR   Ar  114   9.582   7.543   9.245
    1   AR   Ar  115  10.411   5.846   8.493
    1   AR   Ar  116   8.542  10.552   7.643
    1   AR   Ar  117   0.130   0.740   7.809
    1   AR   Ar  118   9.739   9.591   9.648
    1   AR   Ar  119   2.138   6.088   0.664
    1   AR   Ar  120   1.972   6.293   8.443
    1   AR   Ar  121   8.745  10.489   9.504
    1   AR   Ar  122  10.196   2.382   2.180
    1   AR   Ar  123   1.729   9.715   3.382
    1   AR   Ar  124  10.326   8.824  10.584
    1   AR   Ar  125   0.287  10.407   2.063
    1   AR   Ar  126   9.581   8.729   2.028
    1   AR   Ar  127   2.348   1.365   3.604
    1   AR   Ar  128  10.544   1.039   3.340
    1   AR   Ar  129   0.471   9.987   3.620
    1   AR   Ar  130   0.003   9.233   6.339
    1   AR   Ar  131  10.288  10.499   3.103
    1   AR   Ar  132   1.248   0.380   5.849
    1   AR   Ar  133   1.168   8.581   3.184
    1   AR   Ar  134   1.531   9.260   7.582
    1   AR   Ar  135   1.171   8.405   5.439
    1   AR   Ar  136   0.021  10.599   8.512
    1   AR   Ar  137   9.337   9.497   5.951
    1   AR   Ar  138  10.304   0.627   6.318
    1   AR   Ar  139   0.497   9.526   8.051
    1   AR   Ar  140   3.435   7.994   7.810
    1   AR   Ar  141   9.126   9.642   7.684
    1   AR   Ar  142   1.140   9.840   8.956
    1   AR   Ar  143   1.428   8.933   1.154
    1   AR   Ar  144   1.156   8.380   8.243
    1   AR   Ar  145   2.576   1.114   0.561
    1   AR   Ar  146   5.009  10.435   3.906
    1   AR   Ar  147   1.429   1.327   0.330
    1   AR   Ar  148   4.052   0.263   8.593
    1   AR   Ar  149   2.171   9.725   1.179
    1   AR   Ar  150   0.689   0.366   3.971
    1   AR   Ar  151   2.901   0.465   3.276
    1   AR   Ar  152   3.374   2.505   1.033
    1   AR   Ar  153   1.467  10.651   4.875
    1   AR   Ar  154   1.531   2.270   4.600
    1   AR   Ar  155   1.126   1.294   2.909
    1   AR   Ar  156   2.594  10.228   2.592
    1   AR   Ar  157   0.788  10.448   7.524
    1   AR   Ar  158   4.883   1.103   4.609
    1   AR   Ar  159   1.571  10.539   6.682
    1   AR   Ar  160   0.499   0.035   6.565
    1   AR   Ar  161   1.109   2.320   8.471
    1   AR   Ar  162   0.517   3.196   6.215
    1   AR   Ar  163   5.598   8.222   7.112
    1   AR   Ar  164   5.451   2.995   7.310
    1   AR   Ar  165   2.827   2.285   8.233
    1   AR   Ar  166   3.260   3.367   8.668
    1   AR   Ar  167   2.865   9.004   9.151
    1   AR   Ar  168   0.334   1.603   7.326
    1   AR   Ar  169   2.480   2.227   0.310
    1   AR   Ar  170   0.998   5.795   1.185
    1   AR   Ar  171   4.040   0.768   0.980
    1   AR   Ar  172   3.874   2.278  10.137
    1   AR   Ar  173   1.945   0.587  10.558
    1   AR   Ar  174   0.942   3.599   2.294
    1   AR   Ar  175   4.698   3.217   0.476
    1   AR   Ar  176   3.387   4.129   1.594
    1   AR   Ar  177   2.293   0.809   2.535
    1   AR   Ar  178   3.748   2.286   1.988
    1   AR   Ar  179   1.745   4.958   4.150
    1   AR   Ar  180   2.803   3.288   2.309
    1   AR   Ar  181  10.049   1.445   4.126
    1   AR   Ar  182   3.859   2.861   5.471
    1   AR   Ar  183   3.717   2.905   6.544
    1   AR   Ar  184   2.587   2.382   3.061
    1   AR   Ar  185   1.728   2.451   6.176
    1   AR   Ar  186  10.188   2.632   7.053
    1   AR   Ar  187   1.499   4.409   5.037
    1   AR   Ar  188   4.830   4.539   6.613
    1   AR   Ar  189   2.324   2.732   9.447
    1   AR   Ar  190   2.098   9.554   8.592
    1   AR   Ar  191   0.866   3.319   8.649
    1   AR   Ar  192   2.273   1.534  10.272
    1   AR   Ar  193   2.603   3.058  10.487
    1   AR   Ar  194   0.636   2.087   1.969
    1   AR   Ar  195   1.421   2.291  10.678
    1   AR   Ar  196   3.597   5.275   0.939
    1   AR   Ar  197   1.826   1.971   1.143
    1   AR   Ar  198   0.063   5.233   1.432
    1   AR   Ar  199  10.663   3.553   0.737
    1   AR   Ar  200   1.437   4.818   2.041
    1   AR   Ar  201   2.865   3.284   3.517
    1   AR   Ar  202   1.183   3.941   4.045
    1   AR   Ar  203   2.870   6.077   1.610
    1   AR   Ar  204   4.044   4.519   3.102
    1   AR   Ar  205   3.184   4.409   3.797
    1   AR   Ar  206   3.159   3.748   5.390
    1   AR   Ar  207   3.509   5.883   3.451
    1   AR   Ar  208   1.001   5.944   3.586
    1   AR   Ar  209   2.633   3.315   6.183
    1   AR   Ar  210   0.902   5.379   8.962
    1   AR   Ar  211   1.372   3.787   7.661
    1   AR   Ar  212   2.728   2.196   6.923
    1   AR   Ar  213   2.738   2.296   1.962
    1   AR   Ar  214   1.854   3.498   9.951
    1   AR   Ar  215   3.604   3.293   0.364
    1   AR   Ar  216   0.676   2.531   9.441
    1   AR   Ar  217   2.039   4.945  10.208
    1   AR   Ar  218   1.753   5.001   0.729
    1   AR   Ar  219   3.617   6.218   0.438
    1   AR   Ar  220   4.723   9.041   8.927
    1   AR   Ar  221   1.751   3.236   0.381
    1   AR   Ar  222   0.182   8.632   2.604
    1   AR   Ar  223   0.071   4.130   1.979
    1   AR   Ar  224   2.300   8.958   0.207
    1   AR   Ar  225   0.162   6.791   2.797
    1   AR   Ar  226   1.490   7.752   4.192
    1   AR   Ar  227   3.768   6.525   2.539
    1   AR   Ar  228   2.106   6.184   4.449
    1   AR   Ar  229   1.096   6.411   4.626
    1   AR   Ar  230   2.951   6.154   7.752
    1   AR   Ar  231   4.470   7.670   7.414
    1   AR   Ar  232   5.248   7.069   5.356
    1   AR   Ar  233   4.047   6.068   5.723
    1   AR   Ar  234  10.182   8.595   9.485
    1   AR   Ar  235   3.901   5.435   6.766
    1   AR   Ar  236   2.112   6.155   5.627
    1   AR   Ar  237   2.193   5.778   6.751
    1   AR   Ar  238   1.700   7.901   1.032
    1   AR   Ar  239   0.718   4.975   0.436
    1   AR   Ar  240   2.190   5.250   8.572
    1   AR   Ar  241  10.504   6.267  10.218
    1   AR   Ar  242  10.077   0.468   1.969
    1   AR   Ar  243   2.809   6.950   0.469
    1   AR   Ar  244   1.718   7.209   0.240
    1   AR   Ar  245   1.729   7.679   2.924
    1   AR   Ar  246   0.661   9.347   1.841
    1   AR   Ar  247   3.821   9.149   1.197
    1   AR   Ar  248   1.122   0.380   0.744
    1   AR   Ar  249   0.416   4.214   4.689
    1   AR   Ar  250   1.702   0.103   3.442
    1   AR   Ar  251   3.839   7.746   3.887
    1   AR   Ar  252   3.446   8.419   2.427
    1   AR   Ar  253  10.167   6.744   7.963
    1   AR   Ar  254   1.790   7.321   6.653
    1   AR   Ar  255   2.559   6.728   6.756
    1   AR   Ar  256   4.381   6.663   3.484
    1   AR   Ar  257   1.601   7.283   7.718
    1   AR   Ar  258   0.979   9.586   6.851
    1   AR   Ar  259   1.944   5.721   9.507
    1   AR   Ar  260   2.007   7.964   5.019
    1   AR   Ar  261   2.299   8.203   8.747
    1   AR   Ar  262   3.748   8.113  10.233
    1   AR   Ar  263   0.108   6.717   9.062
    1   AR   Ar  264   1.290   8.389   2.203
    1   AR   Ar  265   2.348   1.308   8.940
    1   AR   Ar  266   3.443  10.322   1.314
    1   AR   Ar  267   9.677   8.033   0.826
    1   AR   Ar  268   3.513   8.920   0.003
    1   AR   Ar  269   3.936   8.158   1.054
    1   AR   Ar  270   0.006   9.616   2.725
    1   AR   Ar  271   1.612   0.016   2.262
    1   AR   Ar  272   4.624  10.091   1.601
    1   AR   Ar  273   3.189   9.240   2.979
    1   AR   Ar  274   3.074   0.411   6.176
    1   AR   Ar  275   4.463   7.217   2.496
    1   AR   Ar  276   4.822   2.007   3.534
    1   AR   Ar  277   2.711   9.819   3.747
    1   AR   Ar  278   2.539   7.707   7.380
    1   AR   Ar  279   6.150   9.214   4.739
    1   AR   Ar  280   2.895   8.852   6.544
    1   AR   Ar  281   1.164   6.842   9.889
    1   AR   Ar  282   2.368  10.171   7.407
    1   AR   Ar  283   1.900   9.285   6.623
    1   AR   Ar  284   4.447   8.491   8.041
    1   AR   Ar  285   0.224   0.221   9.449
    1   AR   Ar  286   2.947  10.658   8.588
    1   AR   Ar  287   0.819   6.310   8.488
    1   AR   Ar  288   3.927   8.932   7.218
    1   AR   Ar  289   3.726   2.108   3.322
    1   AR   Ar  290   3.086   9.832   0.370
    1   AR   Ar  291   6.966   9.809   2.760
    1   AR   Ar  292   3.373   1.401  10.591
    1   AR   Ar  293   3.405   9.697   8.191
    1   AR   Ar  294   3.154   9.506   1.901
    1   AR   Ar  295   5.958  10.119   1.423
    1   AR   Ar  296   5.492   9.441   0.613
    1   AR   Ar  297   3.256   0.247   2.173
    1   AR   Ar  298   3.317  10.530   5.248
    1   AR   Ar  299   6.145   2.941   2.510
    1   AR   Ar  300   3.273   2.948   4.567
    1   AR   Ar  301   3.194   9.713   7.086
    1   AR   Ar  302   3.841   1.832   4.665
    1   AR   Ar  303   2.781   1.651   4.871
    1   AR   Ar  304   5.391   1.714   7.442
    1   AR   Ar  305   5.388   1.963   6.454
    1   AR   Ar  306   2.461   9.951   6.051
    1   AR   Ar  307   2.727   8.774   7.848
    1   AR   Ar  308   3.677   2.056   7.415
    1   AR   Ar  309   4.683   1.394   8.128
    1   AR   Ar  310   4.411   1.988   0.378
    1   AR   Ar  311   3.921   8.999   9.692
    1   AR   Ar  312   4.080   0.463   6.114
    1   AR   Ar  313   2.840   1.081   1.551
    1   AR   Ar  314   5.977   1.951   2.780
    1   AR   Ar  315   7.012   3.738   0.029
    1   AR   Ar  316   3.265   7.371   1.522
    1   AR   Ar  317   3.321   1.365   2.612
    1   AR   Ar  318   1.914   3.819   1.764
    1   AR   Ar  319   5.176   2.469   2.600
    1   AR   Ar  320   2.079   2.799   3.983
    1   AR   Ar  321   3.767   4.004   4.647
    1   AR   Ar  322   0.749   1.540   3.795
    1   AR   Ar  323   2.618   0.542   4.286
    1   AR   Ar  324   6.352   3.272   3.867
    1   AR   Ar  325   1.484   1.517   5.343
    1   AR   Ar  326   0.846   2.280   6.666
    1   AR   Ar  327   3.525   1.878   5.775
    1   AR   Ar  328   8.062   6.080   6.414
    1   AR   Ar  329   5.148   2.523   8.291
    1   AR   Ar  330   1.257   4.271   9.130
    1   AR   Ar  331   3.093   0.079   7.305
    1   AR   Ar  332   2.165   3.218   8.428
    1   AR   Ar  333   1.600   2.380   7.516
    1   AR   Ar  334   6.642   3.500   7.353
    1   AR   Ar  335   3.659   1.650   8.595
    1   AR   Ar  336   3.192   1.733   9.570
    1   AR   Ar  337   4.152   3.825   8.321
    1   AR   Ar  338   1.736   5.915   1.883
    1   AR   Ar  339   6.889   5.099   1.337
    1   AR   Ar  340   6.019   4.952   0.752
    1   AR   Ar  341   0.700   6.077   2.248
    1   AR   Ar  342   0.947   3.299   5.017
    1   AR   Ar  343   2.671   4.709   2.892
    1   AR   Ar  344   4.919   4.898   0.528
    1   AR   Ar  345   4.728   3.815   2.448
    1   AR   Ar  346   0.768   3.073   3.293
    1   AR   Ar  347   6.210   1.441   4.554
    1   AR   Ar  348   2.551   5.474   3.766
    1   AR   Ar  349   4.186   2.748   4.077
    1   AR   Ar  350   5.463   5.807   7.244
    1   AR   Ar  351   3.665   5.464   4.441
    1   AR   Ar  352   8.987   5.876   5.324
    1   AR   Ar  353   7.413   4.208   6.483
    1   AR   Ar  354   3.217   4.996   7.640
    1   AR   Ar  355   2.693   3.837   7.547
    1   AR   Ar  356   0.544   3.200   7.409
    1   AR   Ar  357   2.458   3.859   9.094
    1   AR   Ar  358   2.882   5.329   0.152
    1   AR   Ar  359   6.109   0.875   0.514
    1   AR   Ar  360   6.233   2.945  10.013
    1   AR   Ar  361   2.838   4.167  10.168
    1   AR   Ar  362   2.580   5.124   1.390
    1   AR   Ar  363   3.908   6.355   1.509
    1   AR   Ar  364   4.046   4.190   0.836
    1   AR   Ar  365   2.349   4.139   0.629
    1   AR   Ar  366   5.622   4.522   3.413
    1   AR   Ar  367   5.861   7.098   2.220
    1   AR   Ar  368   5.629   3.902   1.175
    1   AR   Ar  369   3.603   5.512   2.136
    1   AR   Ar  370   3.135   6.292   4.925
    1   AR   Ar  371   5.902   3.478   4.943
    1   AR   Ar  372   6.423   5.550   2.259
    1   AR   Ar  373   2.628   4.384   4.765
    1   AR   Ar  374   4.935   2.401   5.578
    1   AR   Ar  375   3.319   6.892   3.695
    1   AR   Ar  376   8.421   8.732   4.086
    1   AR   Ar  377   2.965   6.858   5.763
    1   AR   Ar  378   4.190   6.733   6.959
    1   AR   Ar  379   3.435   7.141  10.357
    1   AR   Ar  380   4.003   6.367   7.870
    1   AR   Ar  381   0.864   5.957  10.507
    1   AR   Ar  382   2.373   6.721  10.087
    1   AR   Ar  383   5.442   2.826  10.541
    1   AR   Ar  384   2.828   7.353   9.288
    1   AR   Ar  385   5.056   6.385   1.735
    1   AR   Ar  386   1.584   8.765   9.732
    1   AR   Ar  387   2.472   8.052   1.787
    1   AR   Ar  388   5.875   7.939  10.587
    1   AR   Ar  389   4.152   4.885  10.538
    1   AR   Ar  390   5.309   7.889   2.600
    1   AR   Ar  391   5.390   5.490   2.671
    1   AR   Ar  392   5.232   8.224   0.870
    1   AR   Ar  393   4.377   6.280   4.413
    1   AR   Ar  394   2.948   7.439   2.800
    1   AR   Ar  395   2.638   5.990   2.784
    1   AR   Ar  396   4.607   8.391   4.273
    1   AR   Ar  397   6.422   5.086   7.246
    1   AR   Ar  398   2.392  10.300   4.810
    1   AR   Ar  399   4.923   5.615   6.367
    1   AR   Ar  400   5.194   8.212   5.197
    1   AR   Ar  401   5.034   7.510   6.364
    1   AR   Ar  402   3.612   8.037   6.530
    1   AR   Ar  403   3.023   4.663   8.959
    1   AR   Ar  404   4.253   6.097   8.927
    1   AR   Ar  405   2.979   5.550   5.993
    1   AR   Ar  406   1.502   6.720   1.166
    1   AR   Ar  407   3.939   7.244   9.381
    1   AR   Ar  408   5.035   6.367   9.613
    1   AR   Ar  409   1.834   7.622   9.584
    1   AR   Ar  410   2.776   8.836   1.106
    1   AR   Ar  411   5.400   1.206   5.520
    1   AR   Ar  412   2.494   9.636  10.082
    1   AR   Ar  413   3.792  10.035   2.416
    1   AR   Ar  414   7.565   0.593   2.520
    1   AR   Ar  415   6.360   8.893   0.645
    1   AR   Ar  416   6.443   6.931   3.052
    1   AR   Ar  417   2.793   7.897   5.731
    1   AR   Ar  418   4.529   8.375   3.197
    1   AR   Ar  419   3.197   9.715   4.616
    1   AR   Ar  420   4.742   9.437   6.858
    1   AR   Ar  421   3.549   8.989   3.979
    1   AR   Ar  422   2.621   8.929   5.589
    1   AR   Ar  423   5.837   6.942   7.036
    1   AR   Ar  424   4.279   7.189   5.028
    1   AR   Ar  425   3.115   5.796   8.620
    1   AR   Ar  426   3.981   9.067   6.002
    1   AR   Ar  427   2.889   8.154   4.185
    1   AR   Ar  428   3.618   0.805   5.110
    1   AR   Ar  429   1.165   7.554   8.842
    1   AR   Ar  430   5.891   8.345   9.061
    1   AR   Ar  431   4.071   7.547   8.404
    1   AR   Ar  432   7.103   8.970   7.856
    1   AR   Ar  433   4.847  10.224   9.350
    1   AR   Ar  434   6.449   1.023   2.979
    1   AR   Ar  435   6.329  10.160   0.175
    1   AR   Ar  436   4.327   1.336  10.246
    1   AR   Ar  437   8.138   9.358   3.223
    1   AR   Ar  438   8.539   9.023   2.127
    1   AR   Ar  439   4.480   1.698   2.600
    1   AR   Ar  440   6.526   2.561   1.573
    1   AR   Ar  441   6.284   0.121   3.503
    1   AR   Ar  442   6.013   0.431   4.614
    1   AR   Ar  443   4.060   9.836   5.216
    1   AR   Ar  444   5.558   0.555   1.517
    1   AR   Ar  445   3.364   1.226   6.730
    1   AR   Ar  446   8.213   1.607   5.291
    1   AR   Ar  447   5.154  10.567   4.960
    1   AR   Ar  448   7.336   1.648   4.609
    1   AR   Ar  449   3.639  10.145   6.206
    1   AR   Ar  450   3.102   1.167   7.870
    1   AR   Ar  451   4.683  10.289   5.911
    1   AR   Ar  452   9.204   4.562   6.363
    1   AR   Ar  453   5.367   7.717   8.227
    1   AR   Ar  454   4.806   2.648   9.815
    1   AR   Ar  455   6.795  10.042   9.862
    1   AR   Ar  456   5.729   9.295   7.173
    1   AR   Ar  457   6.103   2.007   0.709
    1   AR   Ar  458   5.222   2.239   4.531
    1   AR   Ar  459   5.617   1.656   1.631
    1   AR   Ar  460   4.823   7.616   1.657
    1   AR   Ar  461   6.116   2.612   5.790
    1   AR   Ar  462   6.964   4.529   5.410
    1   AR   Ar  463   6.740   1.416   5.469
    1   AR   Ar  464   6.547   4.137   3.272
    1   AR   Ar  465   4.586   0.719   3.310
    1   AR   Ar  466   4.161   3.889   5.948
    1   AR   Ar  467   7.685  10.452   3.616
    1   AR   Ar  468   4.688   3.374   5.022
    1   AR   Ar  469   4.394   1.450   5.541
    1   AR   Ar  470   4.589   2.471   7.430
    1   AR   Ar  471  10.491   4.930   5.359
    1   AR   Ar  472   7.290   3.479   4.862
    1   AR   Ar  473   2.552   1.551   6.019
    1   AR   Ar  474   6.869   3.149   6.337
    1   AR   Ar  475   4.574   1.091   7.058
    1   AR   Ar  476   7.508   3.240   8.699
    1   AR   Ar  477   6.471   1.915   6.493
    1   AR   Ar  478   4.518   1.400   1.509
    1   AR   Ar  479   5.302   0.674   9.941
    1   AR   Ar  480   4.582   1.771   9.219
    1   AR   Ar  481   4.075   2.658   8.787
    1   AR   Ar  482   4.182   6.407  10.302
    1   AR   Ar  483   7.663   7.307   3.141
    1   AR   Ar  484   2.222   6.910   2.159
    1   AR   Ar  485   6.974   2.540   2.899
    1   AR   Ar  486   5.006   3.923   4.138
    1   AR   Ar  487   5.854   3.896   2.334
    1   AR   Ar  488   5.301   6.814   4.289
    1   AR   Ar  489   8.201   2.635   5.919
    1   AR   Ar  490   8.495   4.176   4.818
    1   AR   Ar  491   6.696   4.554   2.320
    1   AR   Ar  492   6.604   4.218   4.530
    1   AR   Ar  493   5.835   2.233   3.681
    1   AR   Ar  494   3.949   4.822   5.614
    1   AR   Ar  495   6.064   4.403   7.945
    1   AR   Ar  496   7.835   3.965   5.623
    1   AR   Ar  497   6.507   2.440   4.822
    1   AR   Ar  498   4.339   5.045   7.583
    1   AR   Ar  499   5.185   4.912   8.057
    1   AR   Ar  500   4.048   3.909   6.990
    1   AR   Ar  501   5.650   1.544  10.499
    1   AR   Ar  502   7.948   4.815   1.222
    1   AR   Ar  503   6.607   1.853  10.088
    1   AR   Ar  504   5.795   4.388   8.951
    1   AR   Ar  505   3.317   5.688   9.720
    1   AR   Ar  506   4.794   5.267   1.510
    1   AR   Ar  507   7.544   6.873  10.308
    1   AR   Ar  508   4.041   7.115   0.725
    1   AR   Ar  509   5.407   2.702   1.438
    1   AR   Ar  510   5.823   7.818   4.237
    1   AR   Ar  511   7.392   6.303   3.674
    1   AR   Ar  512   7.005   4.179   1.005
    1   AR   Ar  513   6.738   5.498   4.949
    1   AR   Ar  514   4.672   4.377   5.089
    1   AR   Ar  515   8.027   2.201   2.958
    1   AR   Ar  516   5.253   3.169   3.538
    1   AR   Ar  517   5.602   4.613   5.736
    1   AR   Ar  518   6.199   6.357   5.478
    1   AR   Ar  519   7.895   3.749   7.240
    1   AR   Ar  520   7.507   7.083   6.348
    1   AR   Ar  521   5.096   3.680   8.000
    1   AR   Ar  522   0.552   7.124  10.609
    1   AR   Ar  523   5.772   3.661   6.049
    1   AR   Ar  524   6.722   6.957   7.741
    1   AR   Ar  525   5.543   3.358   9.194
    1   AR   Ar  526   5.414   4.016   0.186
    1   AR   Ar  527   5.251   4.829   9.981
    1   AR   Ar  528   4.361   3.973   9.564
    1   AR   Ar  529   4.518   8.764   0.308
    1   AR   Ar  530   4.883   9.645  10.362
    1   AR   Ar  531   2.977   7.924   0.342
    1   AR   Ar  532   5.126   7.473   9.539
    1   AR   Ar  533   5.479   5.829  10.432
    1   AR   Ar  534   7.480   8.337   3.377
    1   AR   Ar  535   6.436   6.596   4.467
    1   AR   Ar  536   7.750   7.768   1.404
    1   AR   Ar  537   3.857   8.058   5.505
    1   AR   Ar  538   4.349   9.135   2.060
    1   AR   Ar  539   6.715   8.451   5.661
    1   AR   Ar  540   3.940   0.283   4.261
    1   AR   Ar  541   8.118  10.145   2.487
    1   AR   Ar  542   5.057   9.489   4.818
    1   AR   Ar  543   6.087   5.495   6.100
    1   AR   Ar  544   5.684   8.947   3.720
    1   AR   Ar  545   4.193   5.091   8.767
    1   AR   Ar  546   6.252  10.053   5.760
    1   AR   Ar  547   6.663   6.424   8.825
    1   AR   Ar  548   7.560   7.133   8.580
    1   AR   Ar  549   2.774   7.059   8.305
    1   AR   Ar  550   3.879  10.022  10.119
    1   AR   Ar  551   6.340   5.627   9.491
    1   AR   Ar  552   5.497   6.997   0.002
    1   AR   Ar  553   4.366   9.892   0.660
    1   AR   Ar  554   3.866   0.349   9.670
    1   AR   Ar  555   6.850   7.131   1.488
    1   AR   Ar  556   4.996   9.423   2.924
    1   AR   Ar  557   4.698   7.775   0.206
    1   AR   Ar  558   4.252   0.483   2.152
    1   AR   Ar  559   9.021   9.002   3.155
    1   AR   Ar  560   5.200   0.734   2.460
    1   AR   Ar  561   5.635   1.205   3.669
    1   AR   Ar  562   6.466   8.779   2.947
    1   AR   Ar  563   3.593  10.324   3.461
    1   AR   Ar  564   7.298   9.224   3.984
    1   AR   Ar  565   3.912   8.849   4.923
    1   AR   Ar  566   6.586   0.464   5.495
    1   AR   Ar  567   6.153  10.407   7.088
    1   AR   Ar  568   6.397   9.790   3.647
    1   AR   Ar  569   5.834   8.247   6.074
    1   AR   Ar  570   6.273   9.947   8.096
    1   AR   Ar  571   8.120   7.897  10.412
    1   AR   Ar  572   5.457  10.611   8.122
    1   AR   Ar  573   4.174  10.232   7.048
    1   AR   Ar  574   3.511   8.225   8.858
    1   AR   Ar  575   6.790   7.621  10.428
    1   AR   Ar  576   2.801   8.341   9.855
    1   AR   Ar  577   5.453  10.457   0.499
    1   AR   Ar  578   5.779  10.347   2.692
    1   AR   Ar  579   8.163   1.798   4.156
    1   AR   Ar  580   7.715  10.318  10.424
    1   AR   Ar  581   7.954   3.755   3.987
    1   AR   Ar  582   7.441   0.434   0.431
    1   AR   Ar  583   7.273   9.126   5.086
    1   AR   Ar  584   9.503   2.563   2.927
    1   AR   Ar  585   6.995   0.842   4.058
    1   AR   Ar  586   9.921   9.883   5.134
    1   AR   Ar  587   9.084   9.568   4.065
    1   AR   Ar  588   9.041   0.231   2.436
    1   AR   Ar  589   6.742   0.605   6.609
    1   AR   Ar  590   7.998   2.666   4.760
    1   AR   Ar  591   7.173   1.450   9.335
    1   AR   Ar  592   7.493   0.060   4.621
    1   AR   Ar  593   6.430   2.268   7.531
    1   AR   Ar  594   6.454  10.666   8.976
    1   AR   Ar  595   6.267   0.973   9.550
    1   AR   Ar  596  10.031   4.408   9.519
    1   AR   Ar  597   4.533   0.422   0.061
    1   AR   Ar  598   7.855   0.528   9.612
    1   AR   Ar  599   7.824   8.895   8.877
    1   AR   Ar  600   6.663   0.421  10.342
    1   AR   Ar  601   5.174   0.785   8.915
    1   AR   Ar  602   6.189   3.278   0.592
    1   AR   Ar  603   5.752   2.262   9.370
    1   AR   Ar  604   7.891   4.084   0.556
    1   AR   Ar  605   7.121   3.659   1.874
    1   AR   Ar  606   6.937   1.816   2.223
    1   AR   Ar  607   6.717   0.085   0.966
    1   AR   Ar  608   7.672   4.366   2.933
    1   AR   Ar  609   6.729   1.793   3.679
    1   AR   Ar  610   8.785  10.327   3.403
    1   AR   Ar  611   7.546   2.811   3.619
    1   AR   Ar  612   8.853   4.792   4.066
    1   AR   Ar  613   7.153   6.031   5.856
    1   AR   Ar  614   8.662   3.133   6.798
    1   AR   Ar  615   7.812   1.289   6.748
    1   AR   Ar  616   0.558   2.668   4.267
    1   AR   Ar  617   7.002   1.410   7.246
    1   AR   Ar  618   8.305   1.929   7.787
    1   AR   Ar  619   6.809   1.100   8.322
    1   AR   Ar  620   7.245   9.990   8.109
    1   AR   Ar  621   7.473   2.579   7.606
    1   AR   Ar  622   7.779   5.513  10.067
    1   AR   Ar  623   7.735  10.065   9.263
    1   AR   Ar  624   5.861   1.666   8.477
    1   AR   Ar  625   5.994   3.282   8.194
    1   AR   Ar  626   8.474   5.773   1.301
    1   AR   Ar  627   7.367   3.087   0.960
    1   AR   Ar  628   7.571   5.668   0.630
    1   AR   Ar  629   7.815   2.803   2.103
    1   AR   Ar  630   4.242   3.137   1.500
    1   AR   Ar  631   9.924   3.920   2.764
    1   AR   Ar  632   7.465   2.058   1.120
    1   AR   Ar  633   8.088   3.831   2.206
    1   AR   Ar  634  10.121   6.588   5.695
    1   AR   Ar  635  10.587   6.184   3.539
    1   AR   Ar  636   6.656   5.968   3.066
    1   AR   Ar  637   7.438   1.929   6.061
    1   AR   Ar  638   9.130   3.628   5.646
    1   AR   Ar  639  10.001   3.566   7.834
    1   AR   Ar  640   8.217   5.333   4.849
    1   AR   Ar  641   8.683   2.734   8.531
    1   AR   Ar  642   7.084   6.010   7.889
    1   AR   Ar  643   9.110   5.455   7.112
    1   AR   Ar  644   6.030   0.798   7.532
    1   AR   Ar  645   7.180   3.562   9.710
    1   AR   Ar  646   6.862   4.916   0.007
    1   AR   Ar  647   9.442   3.427  10.236
    1   AR   Ar  648   5.160   5.300   8.994
    1   AR   Ar  649   8.714   5.339   0.464
    1   AR   Ar  650   5.658   5.939   0.920
    1   AR   Ar  651   9.080   3.235   2.112
    1   AR   Ar  652   6.160   6.710   9.862
    1   AR   Ar  653   8.375   3.437   1.259
    1   AR   Ar  654   7.247   5.095   3.496
    1   AR   Ar  655   8.384   6.160   3.144
    1   AR   Ar  656   8.766   7.270   2.980
    1   AR   Ar  657   6.074   5.271   3.873
    1   AR   Ar  658   6.902   7.522   4.006
    1   AR   Ar  659   6.816   7.410   5.020
    1   AR   Ar  660   9.643   6.774   3.635
    1   AR   Ar  661   7.692   6.968   7.473
    1   AR   Ar  662   5.110   5.498   5.227
    1   AR   Ar  663   6.733   6.262   6.883
    1   AR   Ar  664   7.711   9.005   6.323
    1   AR   Ar  665   8.634   2.747   3.732
    1   AR   Ar  666   7.020   7.412   9.468
    1   AR   Ar  667   9.467   6.272   6.479
    1   AR   Ar  668   6.413   4.460   6.368
    1   AR   Ar  669   8.031   5.843   7.477
    1   AR   Ar  670   6.586   6.547   0.531
    1   AR   Ar  671   8.905   4.685   9.112
    1   AR   Ar  672   9.550   8.044  10.221
    1   AR   Ar  673   7.318   9.561   0.453
    1   AR   Ar  674   5.734   9.468   9.445
    1   AR   Ar  675   7.611   8.800   1.372
    1   AR   Ar  676   5.887   7.207   1.032
    1   AR   Ar  677   8.480   6.167   0.057
    1   AR   Ar  678   5.699   9.156   2.251
    1   AR   Ar  679   6.853   9.769   6.712
    1   AR   Ar  680   6.022   8.142   1.905
    1   AR   Ar  681   5.441   7.048   3.302
    1   AR   Ar  682   6.763   8.445   4.508
    1   AR   Ar  683   4.488   5.471   3.516
    1   AR   Ar  684   9.945   7.545   4.443
    1   AR   Ar  685   7.624   7.994   6.807
    1   AR   Ar  686   7.516   4.360   8.028
    1   AR   Ar  687   6.608   8.720   6.958
    1   AR   Ar  688   6.608  10.271   4.686
    1   AR   Ar  689   7.610   7.893   7.896
    1   AR   Ar  690   6.035   5.790   8.335
    1   AR   Ar  691   6.943   8.107   8.655
    1   AR   Ar  692   8.889   8.057   4.797
    1   AR   Ar  693   6.900   4.820   9.671
    1   AR   Ar  694   6.043   7.219   8.909
    1   AR   Ar  695   5.625   8.916  10.474
    1   AR   Ar  696   6.879   5.975  10.309
    1   AR   Ar  697   8.913   7.037   9.832
    1   AR   Ar  698   8.046   9.866   1.507
    1   AR   Ar  699   9.087   8.711   0.066
    1   AR   Ar  700   4.916   8.487   9.942
    1   AR   Ar  701   3.360   0.175   0.454
    1   AR   Ar  702   4.707  10.374   2.849
    1   AR   Ar  703   7.432   8.987   2.391
    1   AR   Ar  704   8.413   0.387   1.493
    1   AR   Ar  705   7.456  10.392   5.933
    1   AR   Ar  706   8.134   9.782   5.528
    1   AR   Ar  707  10.473   8.808   7.642
    1   AR   Ar  708   8.347   8.686   5.363
    1   AR   Ar  709   5.294   6.688   7.894
    1   AR   Ar  710   5.407   0.573   6.446
    1   AR   Ar  711   5.412   9.466   5.783
    1   AR   Ar  712   9.812   8.855   5.001
    1   AR   Ar  713   8.492   8.609   8.148
    1   AR   Ar  714   4.928   9.452   7.955
    1   AR   Ar  715   8.157   7.746   9.363
    1   AR   Ar  716   9.075   8.441   5.908
    1   AR   Ar  717   6.769   9.373   8.856
    1   AR   Ar  718   7.849   8.871  10.171
    1   AR   Ar  719   9.644   5.343   9.241
    1   AR   Ar  720   7.980   0.106   8.633
    1   AR   Ar  721   8.601  10.570   0.291
    1   AR   Ar  722   0.508   1.610   0.814
    1   AR   Ar  723   3.126   9.988   9.384
    1   AR   Ar  724   2.125  10.282   0.166
    1   AR   Ar  725   0.044   9.772   0.095
    1   AR   Ar  726   8.224   1.192   0.685
    1   AR   Ar  727   8.080   9.843   4.252
    1   AR   Ar  728   0.280   1.040   2.137
    1   AR   Ar  729   9.576   0.419   5.088
    1   AR   Ar  730   8.908  10.326   4.756
    1   AR   Ar  731   9.473   0.775   3.249
    1   AR   Ar  732   8.701   1.228   2.618
    1   AR   Ar  733   9.921   0.138   7.811
    1   AR   Ar  734   8.269   0.589   3.402
    1   AR   Ar  735   0.107   8.366   5.477
    1   AR   Ar  736   7.552   0.849   5.837
    1   AR   Ar  737   9.737  10.451   6.099
    1   AR   Ar  738   6.750   2.430   8.823
    1   AR   Ar  739   8.635   9.604  10.558
    1   AR   Ar  740   8.501   9.923   6.742
    1   AR   Ar  741   8.421   9.809   8.416
    1   AR   Ar  742   7.346   1.273  10.560
    1   AR   Ar  743   9.063   1.336   1.277
    1   AR   Ar  744   8.524   9.400   9.394
    1   AR   Ar  745   9.234   0.722   0.405
    1   AR   Ar  746   7.524   2.498   9.710
    1   AR   Ar  747   6.936   0.975   1.266
    1   AR   Ar  748   7.809   4.401   9.201
    1   AR   Ar  749   6.433   0.170   2.175
    1   AR   Ar  750   8.114   1.453   1.694
    1   AR   Ar  751   4.070   3.060   3.080
    1   AR   Ar  752   8.884   1.733   3.449
    1   AR   Ar  753   9.921   1.614   5.396
    1   AR   Ar  754   8.991   3.160   4.654
    1   AR   Ar  755   0.579   0.156   2.905
    1   AR   Ar  756   0.493   1.108   6.127
    1   AR   Ar  757   9.203   0.809   6.026
    1   AR   Ar  758   8.914   3.354   7.714
    1   AR   Ar  759   8.801   0.795   8.279
    1   AR   Ar  760   8.153   0.309   6.487
    1   AR   Ar  761   7.139   0.316   7.526
    1   AR   Ar  762   8.176   5.101   8.283
    1   AR   Ar  763   9.337   1.211  10.155
    1   AR   Ar  764   9.968   9.571   8.479
    1   AR   Ar  765   8.962   1.001   7.138
    1   AR   Ar  766  10.476   2.521   0.642
    1   AR   Ar  767   5.776  10.406   9.891
    1   AR   Ar  768   0.340   1.212   8.880
    1   AR   Ar  769   0.851   6.631   7.460
    1   AR   Ar  770   8.892   4.375   3.044
    1   AR   Ar  771   7.957   3.201  10.626
    1   AR   Ar  772   7.970   5.306   2.219
    1   AR   Ar  773   6.952   2.422   0.224
    1   AR   Ar  774   9.349   3.855   3.845
    1   AR   Ar  775  10.170   1.780   1.305
    1   AR   Ar  776   0.902   3.210  10.343
    1   AR   Ar  777   9.940   4.934   2.465
    1   AR   Ar  778   8.161   6.616   5.219
    1   AR   Ar  779   0.970   4.623   5.962
    1   AR   Ar  780   9.316   3.495   0.846
    1   AR   Ar  781   8.268   4.795   7.348
    1   AR   Ar  782   8.977   7.296   5.775
    1   AR   Ar  783   9.637   3.063   6.236
    1   AR   Ar  784   8.404   5.119   5.972
    1   AR   Ar  785   8.958   1.788   8.813
    1   AR   Ar  786   8.469   3.836   9.710
    1   AR   Ar  787   9.203   4.327   7.474
    1   AR   Ar  788   9.287   6.842   4.863
    1   AR   Ar  789   7.729   4.404  10.206
    1   AR   Ar  790   8.309   3.729   8.507
    1   AR   Ar  791   8.818   4.601   2.085
    1   AR   Ar  792   6.776   4.036   8.701
    1   AR   Ar  793   9.353   6.787   0.170
    1   AR   Ar  794   7.526   7.300   0.463
    1   AR   Ar  795   8.863   6.318   2.236
    1   AR   Ar  796   9.712   5.790   0.855
    1   AR   Ar  797  10.237   4.695   4.060
    1   AR   Ar  798   1.442   4.486   3.077
    1   AR   Ar  799   8.892   4.107   0.164
    1   AR   Ar  800   0.137   6.164   0.769
    1   AR   Ar  801   9.261   4.850   5.287
    1   AR   Ar  802   6.076   7.236   6.034
    1   AR   Ar  803   8.398   6.848   4.135
    1   AR   Ar  804   0.678   6.963   3.682
    1   AR   Ar  805   1.079   5.360   5.020
    1   AR   Ar  806   7.503   6.133   4.673
    1   AR   Ar  807   8.592   7.617   6.652
    1   AR   Ar  808   9.925   5.775   4.699
    1   AR   Ar  809   6.976   5.113   8.470
    1   AR   Ar  810   9.080   8.528   9.202
    1   AR   Ar  811   7.766   7.814   5.426
    1   AR   Ar  812   8.672   6.666   7.127
    1   AR   Ar  813   8.659   5.825   9.193
    1   AR   Ar  814  10.478   5.341   0.329
    1   AR   Ar  815  10.230   6.060   1.873
    1   AR   Ar  816   0.000   5.370   9.517
    1   AR   Ar  817   7.372   8.342   0.307
    1   AR   Ar  818   8.675   7.442   0.859
    1   AR   Ar  819   0.243  10.064   1.041
    1   AR   Ar  820   9.691  10.149   0.693
    1   AR   Ar  821   7.931   6.916   2.198
    1   AR   Ar  822   7.106   7.744   2.335
    1   AR   Ar  823   9.672   6.941   2.444
    1   AR   Ar  824   9.015   5.891   4.140
    1   AR   Ar  825   8.937   7.720   1.935
    1   AR   Ar  826   8.294   8.262   2.735
    1   AR   Ar  827   0.326   5.403   4.354
    1   AR   Ar  828   8.969   7.789   3.750
    1   AR   Ar  829   0.331   7.230   5.794
    1   AR   Ar  830  10.430  10.180   6.948
    1   AR   Ar  831  10.583   6.816   6.858
    1   AR   Ar  832   0.153   8.955   3.646
    1   AR   Ar  833   1.515   8.266   7.174
    1   AR   Ar  834   0.620   8.337   9.259
    1   AR   Ar  835  10.259   8.106   6.291
    1   AR   Ar  836   5.863   8.761   8.098
    1   AR   Ar  837   8.549   7.540   7.874
    1   AR   Ar  838   7.464   6.313   9.506
    1   AR   Ar  839   8.725   6.864   8.875
    1   AR   Ar  840   1.228   8.010  10.369
    1   AR   Ar  841   0.120   7.603   9.807
    1   AR   Ar  842   2.162   9.104   2.127
    1   AR   Ar  843  10.043   9.719   1.744
    1   AR   Ar  844   1.202  10.026   1.284
    1   AR   Ar  845   9.077  10.107   1.540
    1   AR   Ar  846  10.561   6.752   4.755
    1   AR   Ar  847  10.558   7.810   3.407
    1   AR   Ar  848   7.012   9.822   1.480
    1   AR   Ar  849   9.623   8.604   4.022
    1   AR   Ar  850   1.032   9.773   2.640
    1   AR   Ar  851   0.291   7.607   4.702
    1   AR   Ar  852  10.430  10.042   4.287
    1   AR   Ar  853   8.570   0.091   5.601
    1   AR   Ar  854   4.538   9.338   3.813
    1   AR   Ar  855   8.920   8.829   6.948
    1   AR   Ar  856  10.018   7.555   5.464
    1   AR   Ar  857   9.551   8.544   8.218
    1   AR   Ar  858   8.159   1.602   9.871
    1   AR   Ar  859   8.104   9.297   7.538
    1   AR   Ar  860   9.172  10.392   8.538
    1   AR   Ar  861  10.567   8.816   1.135
    1   AR   Ar  862  10.096   1.216   9.552
    1   AR   Ar  863   6.705   8.963  10.338
    1   AR   Ar  864   2.193   0.537   7.664
   10.68000 10.68000 10.68000
