Argon-slab
  256
    1   AR   Ar    1   5.303   0.024-1862769733571523.750
    1   AR   Ar    2   6.004   3.718-2740365011559262.000
    1   AR   Ar    3   3.132   2.928-1884666207889881.000
    1   AR   Ar    4   5.668   3.482-1875126530351863.500
    1   AR   Ar    5   3.378   0.357-2365469151585628.500
    1   AR   Ar    6   6.345   4.263-2696814431752865.000
    1   AR   Ar    7   1.441   3.432-2564274183434319.500
    1   AR   Ar    8   2.720   1.556-2389802178819912.000
    1   AR   Ar    9   3.698   0.003-2740365011638736.500
    1   AR   Ar   10   1.547   2.270-2740364530006037.000
    1   AR   Ar   11   3.279   5.630-1762208194418926.250
    1   AR   Ar   12   1.438   3.8792241828186350986.000
    1   AR   Ar   13   5.991   1.889-1347062794016354.000
    1   AR   Ar   14   0.566   5.356-2740365011666973.500
    1   AR   Ar   15   0.043   2.070-2741421312908225.000
    1   AR   Ar   16   5.728   0.360-2989958544352739.500
    1   AR   Ar   17   4.190   0.575-2552263352355033.500
    1   AR   Ar   18   6.425   2.827-2037472893957109.250
    1   AR   Ar   19   0.705   1.255-2688988736591591.000
    1   AR   Ar   20   5.522   1.988-2691635424959094.000
    1   AR   Ar   21   3.994   5.678-2596557795581649.500
    1   AR   Ar   22   2.138   0.648-1957474296670427.500
    1   AR   Ar   23   5.753   5.693-2740365011625729.000
    1   AR   Ar   24   3.805   4.149-2306791669335123.000
    1   AR   Ar   25   2.705   3.414-2401874028940430.500
    1   AR   Ar   26   3.557   1.064-2693029142878598.500
    1   AR   Ar   27   5.139   0.1396272192701541335.000
    1   AR   Ar   28   1.148   3.975-1828474423676499.250
    1   AR   Ar   29   4.989   1.273-2673653025787544.000
    1   AR   Ar   30   3.767   0.333-2697708945619388.500
    1   AR   Ar   31   1.696   2.6836394975063049491.000
    1   AR   Ar   32   4.231   0.201-2740365011709008.500
    1   AR   Ar   33   3.069   4.935-1860266732694601.000
    1   AR   Ar   34   1.916   3.768-2740365012315119.000
    1   AR   Ar   35   3.366   4.135-2740365011506862.000
    1   AR   Ar   36   5.878   3.906-2740365011636369.000
    1   AR   Ar   37   2.324   3.746-2445941884082006.500
    1   AR   Ar   38   6.347   0.375-2740364996126681.500
    1   AR   Ar   39   5.083   2.883-2740365011632071.000
    1   AR   Ar   40   0.359   5.351-2740365011610820.500
    1   AR   Ar   41   4.144   3.426-1855232168096054.750
    1   AR   Ar   42   4.308   4.633-2740365011610157.000
    1   AR   Ar   43   4.331   4.254-2740363182033486.000
    1   AR   Ar   44   1.843   1.164-2740365011591843.500
    1   AR   Ar   45   0.458   3.067-1714976670965978.250
    1   AR   Ar   46   6.377   2.135-1903264322324027.000
    1   AR   Ar   47   0.053   2.329-2604636964704306.000
    1   AR   Ar   48   5.606   5.075-2740365011661549.500
    1   AR   Ar   49   5.449   0.759-2696350876063143.000
    1   AR   Ar   50   1.250   3.844-2740365010646517.000
    1   AR   Ar   51   0.451   2.336-2740365011444955.500
    1   AR   Ar   52   3.212   6.395-2568019229165766.500
    1   AR   Ar   53   3.471   3.018-2740365012107110.000
    1   AR   Ar   54   2.191   3.256-2445777307052536.500
    1   AR   Ar   55   2.341   5.609-2677898756052563.000
    1   AR   Ar   56   0.282   1.594-2685537566067881.500
    1   AR   Ar   57   3.377   1.256-2740365011627493.500
    1   AR   Ar   58   1.530   0.288-2740365012214578.000
    1   AR   Ar   59   5.302   4.147-794067016574742.750
    1   AR   Ar   60   5.869   1.737-2740365011591637.500
    1   AR   Ar   61   5.012   3.920-2525893591016978.500
    1   AR   Ar   62   3.535   2.910-2692101001179626.500
    1   AR   Ar   63   0.610   3.356-2692046158412688.000
    1   AR   Ar   64   3.822   6.425-2006158631721528.250
    1   AR   Ar   65   4.157   6.437-1774991974689039.750
    1   AR   Ar   66   5.248   2.625-2695349360557229.500
    1   AR   Ar   67   4.890   1.251-2740365011627258.000
    1   AR   Ar   68   4.095   2.977-2740365011596763.500
    1   AR   Ar   69   6.393   2.247-2730129751831364.000
    1   AR   Ar   70   3.670   3.935-1897336470644266.250
    1   AR   Ar   71   0.854   4.531-2049350070360057.250
    1   AR   Ar   72   4.473   3.393-2740348428744923.000
    1   AR   Ar   73   0.303   1.377-2740365022571984.500
    1   AR   Ar   74   4.942   3.866-1893291693504410.500
    1   AR   Ar   75   1.774   5.835-2740365011631485.500
    1   AR   Ar   76   2.979   5.021-2740331668958385.000
    1   AR   Ar   77   3.813   3.352-2740365011632326.000
    1   AR   Ar   78   0.297   0.958-1776563343332468.000
    1   AR   Ar   79   1.593   3.640-2257961374306744.500
    1   AR   Ar   80   2.282   1.645-2740365011585619.000
    1   AR   Ar   81   2.728   0.941-2740365013088241.000
    1   AR   Ar   82   4.415   6.219-2740365011667991.000
    1   AR   Ar   83   1.979   4.136-2740365011640328.500
    1   AR   Ar   84   4.914   1.148-1864598717788788.000
    1   AR   Ar   85   0.233   4.454-2540441764547234.500
    1   AR   Ar   86   1.880   3.418553628399380037.125
    1   AR   Ar   87   6.287   1.577-2740369125608013.500
    1   AR   Ar   88   5.468   6.319-2697696353617736.000
    1   AR   Ar   89   2.492   6.076-2740365011638931.000
    1   AR   Ar   90   1.025   1.810-2599966157638216.000
    1   AR   Ar   91   4.989   0.971-1924042323256596.000
    1   AR   Ar   92   4.442   2.6446092207418833503.000
    1   AR   Ar   93   5.076   2.698-1859037650806605.500
    1   AR   Ar   94   0.527   4.0103177255420635808.000
    1   AR   Ar   95   1.189   6.195-2692526461412027.000
    1   AR   Ar   96   5.666   4.686-2116388353642276.500
    1   AR   Ar   97   1.130   6.440-1844640928493662.750
    1   AR   Ar   98   4.795   1.542-2604674519788250.500
    1   AR   Ar   99   4.403   1.9276090145256061424.000
    1   AR   Ar  100   2.119   0.277-2002206344751677.500
    1   AR   Ar  101   2.697   3.171-2692016655861903.000
    1   AR   Ar  102   0.580   4.538-2458801394347279.000
    1   AR   Ar  103   1.619   5.9642077940435324858.500
    1   AR   Ar  104   2.426   2.3234163918941900097.500
    1   AR   Ar  105   4.260   0.537-2740365011658681.000
    1   AR   Ar  106   5.924   3.451-1742892081250875.750
    1   AR   Ar  107   4.329   1.453-2693716664431333.500
    1   AR   Ar  108   1.737   6.433-2012952609708497.750
    1   AR   Ar  109   1.871   5.840-2740365011630348.000
    1   AR   Ar  110   4.048   5.9315920589496172285.000
    1   AR   Ar  111   3.101   5.525-2740365011632306.000
    1   AR   Ar  112   2.358   1.631-1852489808443125.000
    1   AR   Ar  113   5.701   1.824-2740365005487630.500
    1   AR   Ar  114   4.857   0.183-1861849917000151.250
    1   AR   Ar  115   1.973   4.253-2735221540182827.000
    1   AR   Ar  116   6.259   5.6863532446882074280.000
    1   AR   Ar  117   1.812   3.0012102326051561919.500
    1   AR   Ar  118   5.969   2.213-1969470384466058.750
    1   AR   Ar  119   0.044   4.291-2175784725453104.000
    1   AR   Ar  120   1.588   4.296-2739556636286209.000
    1   AR   Ar  121   3.481   2.162-2422996576626344.000
    1   AR   Ar  122   2.907   5.469-2538248512801422.500
    1   AR   Ar  123   3.871   1.237-2004240221069080.750
    1   AR   Ar  124   1.195   2.743-2388376795980856.000
    1   AR   Ar  125   4.021   5.780-2045842390572371.750
    1   AR   Ar  126   4.422   5.315-1807811254028112.250
    1   AR   Ar  127   5.803   0.816-2696413776275400.000
    1   AR   Ar  128   2.484   2.9766149671191955086.000
    1   AR   Ar  129   1.226   6.365-1861504819081429.250
    1   AR   Ar  130   2.956   3.367-2705763067353587.500
    1   AR   Ar  131   5.716   5.4086523185222049500.000
    1   AR   Ar  132   3.793   5.826-1900831074082352.750
    1   AR   Ar  133   2.101   1.5404197856421728926.500
    1   AR   Ar  134   2.340   1.878-2696895335115507.000
    1   AR   Ar  135   6.092   4.175-2049849048984374.750
    1   AR   Ar  136   5.936   1.238-2680827637927658.000
    1   AR   Ar  137   3.355   2.033-2692984416146775.000
    1   AR   Ar  138   2.661   0.663-2423504250837547.500
    1   AR   Ar  139   3.744   2.185-1813241788686250.250
    1   AR   Ar  140   3.786   4.158-2740365013427064.500
    1   AR   Ar  141   1.892   2.888-1990533766118070.250
    1   AR   Ar  142   5.684   1.690-2740365011633434.000
    1   AR   Ar  143   3.446   5.285-2740365011657339.500
    1   AR   Ar  144   4.776   1.0025720519957098043.000
    1   AR   Ar  145   6.445   5.502-2740365011630206.500
    1   AR   Ar  146   0.056   1.023-2740365011629473.500
    1   AR   Ar  147   1.930   2.306-1986215654515049.750
    1   AR   Ar  148   1.886   1.141-1779650160958195.250
    1   AR   Ar  149   3.908   2.7742339244454044358.500
    1   AR   Ar  150   1.303   2.772-2696432597680970.000
    1   AR   Ar  151   2.958   1.0024257511843250660.000
    1   AR   Ar  152   4.903   1.495-2693174553719347.000
    1   AR   Ar  153   0.852   0.806-2433179010379017.000
    1   AR   Ar  154   6.108   2.266-2233317858763153.750
    1   AR   Ar  155   3.794   5.973-2740365011618966.500
    1   AR   Ar  156   2.712   2.946-2226733287521055.500
    1   AR   Ar  157   1.785   4.808-2238334126975760.000
    1   AR   Ar  158   5.621   4.027-1817205611287731.250
    1   AR   Ar  159   5.475   2.061-2753678469945363.500
    1   AR   Ar  160   3.630   1.557-2529004791346658.500
    1   AR   Ar  161   3.994   4.848-2740365011657858.500
    1   AR   Ar  162   2.467   4.930-2693381159868704.000
    1   AR   Ar  163   3.491   5.222-2740365011634807.000
    1   AR   Ar  164   4.340   3.815-1966429033356324.500
    1   AR   Ar  165   1.958   5.576-2262551422411883.000
    1   AR   Ar  166   0.050   1.527-1830337839514175.750
    1   AR   Ar  167   0.250   0.117-2557538499998157.000
    1   AR   Ar  168   2.326   2.296-2697136770957775.500
    1   AR   Ar  169   6.102   5.894-2484520897114204.000
    1   AR   Ar  170   4.158   4.917-2034725644449811.500
    1   AR   Ar  171   5.249   5.2696131985609459606.000
    1   AR   Ar  172   5.795   2.452-2430944404742108.500
    1   AR   Ar  173   1.279   2.989-2761060276289469.500
    1   AR   Ar  174   3.458   4.176-2740365011669856.000
    1   AR   Ar  175   2.437   2.348-1933953267931247.000
    1   AR   Ar  176   4.307   5.178-2740365011845682.000
    1   AR   Ar  177   6.217   5.234-2740365011272408.500
    1   AR   Ar  178   1.738   2.196-2740365009817400.000
    1   AR   Ar  179   2.618   5.036-1734845725685435.000
    1   AR   Ar  180   2.235   1.210-2592081305242500.500
    1   AR   Ar  181   0.498   4.056-2692295464372575.000
    1   AR   Ar  182   1.030   4.449-2740365011636152.500
    1   AR   Ar  183   6.422   2.162-2740364439433696.500
    1   AR   Ar  184   4.481   4.197-2740365011668884.000
    1   AR   Ar  185   5.711   5.080-2740365011649255.500
    1   AR   Ar  186   3.523   1.126-1895082292486269.250
    1   AR   Ar  187   4.867   6.352-1822682183859062.250
    1   AR   Ar  188   2.797   3.209-994806714487567.625
    1   AR   Ar  189   3.657   1.057-2482417179679743.000
    1   AR   Ar  190   0.615   4.588-2740365011629455.000
    1   AR   Ar  191   1.739   0.410-2740365011630160.000
    1   AR   Ar  192   3.703   0.488-2232445826284386.750
    1   AR   Ar  193   1.412   2.411-2695215663021938.000
    1   AR   Ar  194   5.091   6.029-2740365035887490.000
    1   AR   Ar  195   5.335   6.294-2740365011644933.500
    1   AR   Ar  196   5.142   1.476-2682932825046073.500
    1   AR   Ar  197   2.783   0.069-2692651621182338.500
    1   AR   Ar  198   5.805   1.014-1863992580025770.250
    1   AR   Ar  199   4.875   1.5071872647285188529152.000
    1   AR   Ar  200   4.393   3.591-2740365011582074.000
    1   AR   Ar  201   2.827   5.032-2740369099629739.500
    1   AR   Ar  202   2.423   3.079-1932075980661462.750
    1   AR   Ar  203   6.350   5.804-2697037560603346.500
    1   AR   Ar  204   3.466   5.6596121360122781558.000
    1   AR   Ar  205   2.517   4.716-2740369104689656.500
    1   AR   Ar  206   6.472   4.136-2212672621610227.000
    1   AR   Ar  207   5.947   5.803-2692381484410467.500
    1   AR   Ar  208   3.326   4.177-2740365012583664.500
    1   AR   Ar  209   3.560   2.297-2740365011632911.500
    1   AR   Ar  210   3.340   5.287-2740364936550766.500
    1   AR   Ar  211   3.528   3.287-2592019114988365.000
    1   AR   Ar  212   5.896   6.380-2740365583828735.000
    1   AR   Ar  213   3.526   4.854-2749200970939950.000
    1   AR   Ar  214   2.851   3.130-2740365012613546.000
    1   AR   Ar  215   2.393   2.342-2740365009235231.000
    1   AR   Ar  216   4.308   4.390-1879604070309442.000
    1   AR   Ar  217   5.411   4.8803159553771095470.500
    1   AR   Ar  218   4.924   0.6324922099365092171.000
    1   AR   Ar  219   5.363   3.415-2697468570737647.000
    1   AR   Ar  220   5.819   4.5367979201448492693.000
    1   AR   Ar  221   2.417   3.978-2615564669162715.000
    1   AR   Ar  222   2.097   3.468-2740365011661625.500
    1   AR   Ar  223   2.365   1.992-2740365011653057.000
    1   AR   Ar  224   3.178   0.642-2111846160269911.250
    1   AR   Ar  225   6.457   1.0266409992856609248.000
    1   AR   Ar  226   0.981   3.326-1962094436028948.750
    1   AR   Ar  227   0.492   5.321-1859093004996558.750
    1   AR   Ar  228   4.508   1.575-2692897105545676.000
    1   AR   Ar  229   1.951   4.797-2694561362332513.000
    1   AR   Ar  230   6.133   2.328-2740365011622146.500
    1   AR   Ar  231   1.554   6.356-2592658263654722.500
    1   AR   Ar  232   2.932   1.7221977513423441924.000
    1   AR   Ar  233   1.510   2.419-2740365011624286.000
    1   AR   Ar  234   0.864   5.353-1810336077819526.000
    1   AR   Ar  235   1.300   4.063-2239372238563599.250
    1   AR   Ar  236   3.229   4.9383435192259721692.000
    1   AR   Ar  237   6.019   5.476-2461998787126440.000
    1   AR   Ar  238   6.422   6.3606102898162884007.000
    1   AR   Ar  239   0.963   6.3722928234668929888.500
    1   AR   Ar  240   5.116   0.197-2740365010583295.500
    1   AR   Ar  241   6.126   6.342-2740365011627554.500
    1   AR   Ar  242   1.407   0.972-2423653533287470.500
    1   AR   Ar  243   6.146   1.3376063047088729410.000
    1   AR   Ar  244   4.667   1.196-2740372319413159.500
    1   AR   Ar  245   2.471   0.527-2740365011641903.000
    1   AR   Ar  246   5.842   3.709-2740365012105495.500
    1   AR   Ar  247   5.174   4.122-2696397713859666.000
    1   AR   Ar  248   0.441   5.693-2696589728227013.500
    1   AR   Ar  249   2.712   1.323-2740365011778934.500
    1   AR   Ar  250   5.393   2.292-1452734086529957376.000
    1   AR   Ar  251   0.646   1.284-2740364641413610.000
    1   AR   Ar  252   3.214   4.004-2685734042471535.500
    1   AR   Ar  253   2.428   5.780-2740365011589967.500
    1   AR   Ar  254   6.255   2.264-2740365011573876.000
    1   AR   Ar  255   0.757   0.202-2619633597346540.500
    1   AR   Ar  256   0.687   0.295-2696865445762022.000
   6.48000   6.48000  12.00000
