Argon-slab
  256
    1   AR   Ar    1   2.453   4.503  -3.020
    1   AR   Ar    2   0.413   2.701   0.143
    1   AR   Ar    3   0.218   6.999   0.030
    1   AR   Ar    4   6.777   3.747  -1.003
    1   AR   Ar    5   6.960   5.797   1.293
    1   AR   Ar    6   0.114   0.468   2.143
    1   AR   Ar    7   0.362   6.514   2.302
    1   AR   Ar    8   0.807   1.897   1.312
    1   AR   Ar    9   6.290   6.741   3.690
    1   AR   Ar   10   0.957   0.388   4.148
    1   AR   Ar   11   0.180   7.110   3.514
    1   AR   Ar   12   1.153   6.450   4.322
    1   AR   Ar   13   6.535   0.800   5.286
    1   AR   Ar   14   6.380   2.283   7.153
    1   AR   Ar   15   1.138   0.643   6.831
    1   AR   Ar   16   1.017   5.999   5.767
    1   AR   Ar   17   6.367   2.930  -0.182
    1   AR   Ar   18   0.608   3.408   2.529
    1   AR   Ar   19   1.615   3.210   0.050
    1   AR   Ar   20   2.162   2.393   0.298
    1   AR   Ar   21   6.973   2.460   1.604
    1   AR   Ar   22   6.822   2.779   2.816
    1   AR   Ar   23   0.202   1.686   2.500
    1   AR   Ar   24   1.492   3.439   3.141
    1   AR   Ar   25   6.954   0.716   4.356
    1   AR   Ar   26   6.378   2.258   4.104
    1   AR   Ar   27   0.613   0.873   3.177
    1   AR   Ar   28   6.983   1.574   3.490
    1   AR   Ar   29   0.635   1.247   5.195
    1   AR   Ar   30   3.630   4.161   6.356
    1   AR   Ar   31   0.648   1.460   4.127
    1   AR   Ar   32   1.109   2.369   4.925
    1   AR   Ar   33   6.661   4.299   0.186
    1   AR   Ar   34   0.441   5.383   2.325
    1   AR   Ar   35   0.812   2.960   1.164
    1   AR   Ar   36   1.324   7.107   0.082
    1   AR   Ar   37   1.449   4.864   3.275
    1   AR   Ar   38   0.683   3.967   3.418
    1   AR   Ar   39   3.055   2.530   3.598
    1   AR   Ar   40   1.463   5.046   1.905
    1   AR   Ar   41   1.418   4.272   4.131
    1   AR   Ar   42   7.074   4.443   4.624
    1   AR   Ar   43   0.272   2.406   4.330
    1   AR   Ar   44   2.480   3.678   3.393
    1   AR   Ar   45   6.725   1.873   6.200
    1   AR   Ar   46   6.506   2.856   5.158
    1   AR   Ar   47   0.276   3.288   5.888
    1   AR   Ar   48   6.899   6.066   5.641
    1   AR   Ar   49   5.421   5.894   2.538
    1   AR   Ar   50   6.329   1.725  -0.798
    1   AR   Ar   51   1.780   5.271   0.871
    1   AR   Ar   52   2.143   5.937  -0.350
    1   AR   Ar   53   0.774   6.971   1.100
    1   AR   Ar   54   0.790   5.954   1.625
    1   AR   Ar   55   1.943   5.636   2.644
    1   AR   Ar   56   1.311   0.491   2.233
    1   AR   Ar   57   7.013   5.000   3.371
    1   AR   Ar   58   0.136   6.119   4.301
    1   AR   Ar   59   0.648   5.036   4.128
    1   AR   Ar   60   0.988   5.943   3.082
    1   AR   Ar   61   0.038   4.430   5.798
    1   AR   Ar   62   6.265   1.228   7.609
    1   AR   Ar   63   0.231   5.315   5.055
    1   AR   Ar   64   0.164   7.031   4.975
    1   AR   Ar   65   1.646   1.408   0.810
    1   AR   Ar   66   1.653   1.097  -0.254
    1   AR   Ar   67   3.241   0.320   1.047
    1   AR   Ar   68   2.529   0.026   0.098
    1   AR   Ar   69   2.888   1.226  -0.311
    1   AR   Ar   70   2.450   1.169   1.769
    1   AR   Ar   71   2.654   6.352   2.716
    1   AR   Ar   72   4.038   1.634   2.439
    1   AR   Ar   73   1.043   7.026   3.114
    1   AR   Ar   74   1.930   0.212   3.970
    1   AR   Ar   75   2.917   6.750   4.258
    1   AR   Ar   76   2.009   0.846   2.898
    1   AR   Ar   77   1.832   6.356   3.496
    1   AR   Ar   78   1.010   0.289   5.242
    1   AR   Ar   79   3.415   0.058   5.875
    1   AR   Ar   80   1.678   1.167   5.001
    1   AR   Ar   81   1.888   3.184   1.127
    1   AR   Ar   82   1.841   2.322   1.643
    1   AR   Ar   83   3.821   0.741  -0.144
    1   AR   Ar   84   4.147   3.742  -0.097
    1   AR   Ar   85   0.442   3.775   0.469
    1   AR   Ar   86   0.664   2.321   3.192
    1   AR   Ar   87   2.584   1.575   3.139
    1   AR   Ar   88   1.013   2.580   2.218
    1   AR   Ar   89   1.239   1.483   2.419
    1   AR   Ar   90   1.044   2.962   3.908
    1   AR   Ar   91   3.354   1.005   3.612
    1   AR   Ar   92   1.676   2.237   3.172
    1   AR   Ar   93   1.657   1.223   3.856
    1   AR   Ar   94   2.183   2.032   4.366
    1   AR   Ar   95   3.038   3.181   7.050
    1   AR   Ar   96   3.471   2.265   5.291
    1   AR   Ar   97   0.529   4.427   1.736
    1   AR   Ar   98   2.714   4.379   1.863
    1   AR   Ar   99   2.957   2.782   0.780
    1   AR   Ar  100   4.247   4.889  -0.768
    1   AR   Ar  101   1.699   3.430   2.145
    1   AR   Ar  102   2.474   4.593   2.891
    1   AR   Ar  103   2.534   2.589   2.625
    1   AR   Ar  104   2.922   3.173   1.842
    1   AR   Ar  105   2.151   2.913   3.942
    1   AR   Ar  106   1.858   3.601   4.970
    1   AR   Ar  107   3.996   2.185   3.756
    1   AR   Ar  108   3.512   3.621   3.013
    1   AR   Ar  109   0.755   3.637   4.917
    1   AR   Ar  110   1.451   2.411   5.964
    1   AR   Ar  111   1.650   4.469   7.292
    1   AR   Ar  112   2.105   3.737   6.327
    1   AR   Ar  113   2.900   6.190   0.570
    1   AR   Ar  114   3.915   6.668  -0.204
    1   AR   Ar  115   3.478   3.847   1.040
    1   AR   Ar  116   6.322   6.576  -0.255
    1   AR   Ar  117   3.608   4.613   0.229
    1   AR   Ar  118   0.695   0.837   0.989
    1   AR   Ar  119   1.587   6.547   2.164
    1   AR   Ar  120   2.310   0.041   1.693
    1   AR   Ar  121   2.286   0.306   5.041
    1   AR   Ar  122   2.309   5.189   4.816
    1   AR   Ar  123   1.227   4.681   5.159
    1   AR   Ar  124   4.843   3.831   5.867
    1   AR   Ar  125   1.311   4.651   6.138
    1   AR   Ar  126   0.601   6.959   6.226
    1   AR   Ar  127   0.526   2.346   6.577
    1   AR   Ar  128   2.340   4.774   5.780
    1   AR   Ar  129   4.110   0.965   0.935
    1   AR   Ar  130   2.865   1.326   0.706
    1   AR   Ar  131   3.434   1.392   1.611
    1   AR   Ar  132   5.469   1.204   0.918
    1   AR   Ar  133   2.898   2.205   1.678
    1   AR   Ar  134   3.198   0.782   2.485
    1   AR   Ar  135   5.483   0.318   3.047
    1   AR   Ar  136   5.272   1.429   2.357
    1   AR   Ar  137   3.455   5.066   4.253
    1   AR   Ar  138   4.210   7.018   4.104
    1   AR   Ar  139   2.914   6.288   5.234
    1   AR   Ar  140   3.955   5.974   4.105
    1   AR   Ar  141   2.863   1.449   4.797
    1   AR   Ar  142   3.945   1.217   6.017
    1   AR   Ar  143   4.333   6.900   5.302
    1   AR   Ar  144   4.636   0.814   5.214
    1   AR   Ar  145   5.710   0.873  -0.117
    1   AR   Ar  146   4.861   2.947   0.314
    1   AR   Ar  147   3.840   2.012   0.450
    1   AR   Ar  148   5.712   3.735   0.101
    1   AR   Ar  149   4.615   1.917   1.320
    1   AR   Ar  150   4.442   3.157   3.388
    1   AR   Ar  151   4.292   0.406   3.078
    1   AR   Ar  152   4.860   1.188   3.339
    1   AR   Ar  153   4.482   1.857   4.762
    1   AR   Ar  154   4.522   3.820   4.762
    1   AR   Ar  155   4.229   0.979   4.281
    1   AR   Ar  156   4.771   2.251   2.832
    1   AR   Ar  157   5.353   1.562   6.788
    1   AR   Ar  158   2.924   3.001   4.617
    1   AR   Ar  159   3.717   3.310   5.220
    1   AR   Ar  160   1.348   5.803   6.868
    1   AR   Ar  161   5.252   4.336  -0.893
    1   AR   Ar  162   4.887   4.627   0.018
    1   AR   Ar  163   3.583   2.676   2.535
    1   AR   Ar  164   6.142   5.177   0.219
    1   AR   Ar  165   3.842   2.715   1.392
    1   AR   Ar  166   3.012   5.301   1.247
    1   AR   Ar  167   5.825   2.911   3.239
    1   AR   Ar  168   4.120   5.163   1.547
    1   AR   Ar  169   4.315   3.593   2.416
    1   AR   Ar  170   2.304   2.616   5.312
    1   AR   Ar  171   4.027   2.948   4.376
    1   AR   Ar  172   4.808   2.805   1.936
    1   AR   Ar  173   3.410   3.952   4.370
    1   AR   Ar  174   6.938   3.709   6.805
    1   AR   Ar  175   2.900   4.047   5.328
    1   AR   Ar  176   3.903   4.696   3.322
    1   AR   Ar  177   3.999   6.598   1.359
    1   AR   Ar  178   4.250   0.598   2.000
    1   AR   Ar  179   4.853   6.017   1.613
    1   AR   Ar  180   5.248   7.065   0.748
    1   AR   Ar  181   2.035   6.573   0.714
    1   AR   Ar  182   3.074   6.406   1.749
    1   AR   Ar  183   3.591   4.496   2.401
    1   AR   Ar  184   4.548   6.561   2.762
    1   AR   Ar  185   2.860   5.351   2.322
    1   AR   Ar  186   3.639   6.081   6.128
    1   AR   Ar  187   2.140   5.424   3.747
    1   AR   Ar  188   3.070   5.719   3.339
    1   AR   Ar  189   2.509   4.539   4.051
    1   AR   Ar  190   0.280   4.728   7.312
    1   AR   Ar  191   2.322   6.074   6.497
    1   AR   Ar  192   5.182   6.481   6.210
    1   AR   Ar  193   5.232   2.777  -0.756
    1   AR   Ar  194   5.884   6.319   1.587
    1   AR   Ar  195   1.347   2.028  -0.701
    1   AR   Ar  196   5.758   2.157   0.230
    1   AR   Ar  197   6.066   0.477   1.633
    1   AR   Ar  198   5.242   0.245   4.102
    1   AR   Ar  199   6.889   6.963   1.411
    1   AR   Ar  200   6.507   0.614   0.477
    1   AR   Ar  201   5.315   6.374   3.592
    1   AR   Ar  202   6.020   1.089   3.807
    1   AR   Ar  203   5.819   6.087   5.457
    1   AR   Ar  204   6.553   7.047   5.953
    1   AR   Ar  205   7.113   0.420   6.814
    1   AR   Ar  206   5.756   2.243   5.655
    1   AR   Ar  207   4.839   0.563   6.206
    1   AR   Ar  208   5.513   0.041   5.273
    1   AR   Ar  209   4.740   1.539   0.126
    1   AR   Ar  210   5.562   2.853   1.210
    1   AR   Ar  211   0.003   1.546   0.486
    1   AR   Ar  212   6.695   3.230   0.901
    1   AR   Ar  213   5.888   1.858   1.627
    1   AR   Ar  214   6.098   1.910   3.015
    1   AR   Ar  215   6.978   1.374   1.591
    1   AR   Ar  216   5.836   2.832   2.166
    1   AR   Ar  217   6.461   0.690   2.894
    1   AR   Ar  218   5.535   1.527   4.760
    1   AR   Ar  219   6.902   1.730   4.996
    1   AR   Ar  220   5.768   3.337   4.378
    1   AR   Ar  221   4.827   1.820   5.811
    1   AR   Ar  222   5.690   1.222   5.752
    1   AR   Ar  223   2.155   1.566   6.206
    1   AR   Ar  224   6.188   0.871   6.662
    1   AR   Ar  225   4.482   3.504   1.059
    1   AR   Ar  226   5.452   5.179   1.057
    1   AR   Ar  227   6.662   3.427   1.923
    1   AR   Ar  228   6.363   4.517   1.292
    1   AR   Ar  229   5.588   3.787   1.609
    1   AR   Ar  230   4.850   4.909   2.393
    1   AR   Ar  231   6.833   4.033   2.881
    1   AR   Ar  232   6.281   4.729   2.486
    1   AR   Ar  233   5.725   3.807   2.655
    1   AR   Ar  234   5.200   5.415   4.276
    1   AR   Ar  235   4.846   2.882   5.120
    1   AR   Ar  236   6.836   3.376   3.750
    1   AR   Ar  237   5.162   4.361   3.549
    1   AR   Ar  238   3.954   4.570   5.402
    1   AR   Ar  239   5.802   3.894   5.429
    1   AR   Ar  240   6.242   4.477   3.835
    1   AR   Ar  241   3.834   5.684   0.412
    1   AR   Ar  242   5.239   6.968   2.070
    1   AR   Ar  243   6.342   6.769   2.512
    1   AR   Ar  244   4.850   5.949   0.412
    1   AR   Ar  245   6.838   5.942   2.955
    1   AR   Ar  246   4.637   5.589   3.229
    1   AR   Ar  247   5.774   5.202   3.273
    1   AR   Ar  248   0.199   5.090   0.638
    1   AR   Ar  249   3.893   5.823   2.339
    1   AR   Ar  250   4.465   5.859   5.558
    1   AR   Ar  251   6.066   4.973   5.139
    1   AR   Ar  252   6.197   5.594   4.240
    1   AR   Ar  253   4.985   4.876   5.094
    1   AR   Ar  254   2.016   5.913   5.497
    1   AR   Ar  255   6.363   2.901   6.251
    1   AR   Ar  256   5.597   5.260   6.490
    7.12000  7.12000 12.00000
