Argon-bulk
  864
    1   AR   Ar    1   9.758   1.026   0.574
    1   AR   Ar    2   0.014   0.080   1.144
    1   AR   Ar    3   0.161   9.564   1.063
    1   AR   Ar    4   1.329   1.415   0.276
    1   AR   Ar    5  10.060   0.725   1.797
    1   AR   Ar    6   0.466   0.908   2.125
    1   AR   Ar    7   1.220  10.315   2.476
    1   AR   Ar    8   1.169   0.613   1.046
    1   AR   Ar    9   9.120   1.424   1.804
    1   AR   Ar   10  10.184   1.257   4.404
    1   AR   Ar   11   0.201   0.660   4.793
    1   AR   Ar   12  10.263   1.538   2.471
    1   AR   Ar   13   1.452   0.607   5.510
    1   AR   Ar   14   9.964   0.723   5.574
    1   AR   Ar   15   1.778   1.694   5.697
    1   AR   Ar   16   0.962   1.476   5.011
    1   AR   Ar   17   1.318   0.137   6.449
    1   AR   Ar   18   2.380   1.533   7.729
    1   AR   Ar   19   1.193  10.147   7.455
    1   AR   Ar   20   1.872   1.009   6.917
    1   AR   Ar   21   1.243   1.284   8.777
    1   AR   Ar   22  10.047   1.491   9.120
    1   AR   Ar   23   0.021  10.619   0.048
    1   AR   Ar   24   1.279   0.880   9.983
    1   AR   Ar   25   9.253   1.456  10.122
    1   AR   Ar   26  10.609   3.768  10.660
    1   AR   Ar   27   0.315   0.838   0.607
    1   AR   Ar   28   1.724   3.616   9.680
    1   AR   Ar   29  10.264   1.799   1.263
    1   AR   Ar   30   9.830   4.124   2.975
    1   AR   Ar   31   0.798   1.747   2.534
    1   AR   Ar   32   9.955   2.757   1.528
    1   AR   Ar   33   9.942   1.905   3.542
    1   AR   Ar   34   9.857   2.550   4.665
    1   AR   Ar   35   0.379   1.327   3.480
    1   AR   Ar   36   8.997   2.017   2.773
    1   AR   Ar   37   9.633   1.716   5.695
    1   AR   Ar   38   0.031   2.093   4.158
    1   AR   Ar   39   0.525   1.070   6.096
    1   AR   Ar   40   0.421   3.434   4.463
    1   AR   Ar   41   0.049   2.068   6.163
    1   AR   Ar   42   9.746   2.690   8.770
    1   AR   Ar   43   0.253   2.340   8.953
    1   AR   Ar   44   0.320   2.903   6.769
    1   AR   Ar   45   0.454   1.654   8.158
    1   AR   Ar   46   9.579   2.571  10.021
    1   AR   Ar   47   0.358   1.176   9.372
    1   AR   Ar   48   1.234   1.999   9.484
    1   AR   Ar   49   9.375   3.661   9.940
    1   AR   Ar   50   0.629   3.789   1.116
    1   AR   Ar   51   0.775   2.869   9.843
    1   AR   Ar   52   1.070   4.802   1.365
    1   AR   Ar   53  10.098   4.822   3.930
    1   AR   Ar   54   9.728   5.173   1.883
    1   AR   Ar   55  10.595   3.553   1.917
    1   AR   Ar   56   0.773   4.225   2.225
    1   AR   Ar   57   9.075   1.567   4.751
    1   AR   Ar   58   0.534   4.245   3.613
    1   AR   Ar   59   8.738   2.692   4.594
    1   AR   Ar   60   9.419   2.810   3.505
    1   AR   Ar   61   9.646   5.484   4.644
    1   AR   Ar   62   1.034   5.987   6.528
    1   AR   Ar   63   9.725   3.518   4.645
    1   AR   Ar   64   1.992   4.253   4.469
    1   AR   Ar   65  10.678   3.851   7.113
    1   AR   Ar   66  10.368   3.553   8.497
    1   AR   Ar   67   0.355   2.935   8.021
    1   AR   Ar   68  10.228   3.745   5.808
    1   AR   Ar   69   0.610   3.576   8.935
    1   AR   Ar   70   0.803   4.076   9.966
    1   AR   Ar   71   1.169   4.532   8.917
    1   AR   Ar   72   1.220   4.919   7.358
    1   AR   Ar   73  10.276   4.661  10.188
    1   AR   Ar   74   0.334   4.704   0.368
    1   AR   Ar   75   1.307   5.169  10.427
    1   AR   Ar   76   1.290   5.563   0.707
    1   AR   Ar   77  10.513   4.930   2.915
    1   AR   Ar   78   1.098   5.812   2.749
    1   AR   Ar   79   1.647   4.771   3.071
    1   AR   Ar   80   1.756   5.178   2.060
    1   AR   Ar   81  10.183   7.917   4.116
    1   AR   Ar   82  10.519   5.788   3.671
    1   AR   Ar   83   1.180   2.789   3.011
    1   AR   Ar   84   1.186   6.018   4.835
    1   AR   Ar   85   0.248   5.060   4.660
    1   AR   Ar   86   2.241   7.769   6.013
    1   AR   Ar   87   2.108   4.761   8.107
    1   AR   Ar   88   1.368   5.021   4.948
    1   AR   Ar   89  10.389   4.778   5.987
    1   AR   Ar   90  10.611   4.890   7.187
    1   AR   Ar   91   1.216   4.816   6.157
    1   AR   Ar   92   0.918   7.987   7.703
    1   AR   Ar   93  10.552   5.762   7.967
    1   AR   Ar   94   0.383   5.261   9.922
    1   AR   Ar   95   0.836   6.013   9.301
    1   AR   Ar   96   1.016   7.243   6.580
    1   AR   Ar   97   0.092   6.503   9.924
    1   AR   Ar   98   0.480   7.725   0.646
    1   AR   Ar   99   2.712   5.962   2.385
    1   AR   Ar  100   1.425   8.017  10.523
    1   AR   Ar  101   3.099   5.833   3.344
    1   AR   Ar  102   9.016   7.473   4.280
    1   AR   Ar  103   0.703   6.944   2.985
    1   AR   Ar  104   1.545   9.340   1.753
    1   AR   Ar  105   0.095   7.902   3.089
    1   AR   Ar  106   1.260  10.255   5.164
    1   AR   Ar  107  10.400   7.481   5.929
    1   AR   Ar  108   1.341   7.812   4.809
    1   AR   Ar  109   9.686   6.940   5.021
    1   AR   Ar  110   9.862   8.926   7.400
    1   AR   Ar  111   1.392   6.896   5.668
    1   AR   Ar  112   0.649   9.224   5.638
    1   AR   Ar  113   0.357   8.357   6.896
    1   AR   Ar  114   9.954   8.393   8.799
    1   AR   Ar  115   0.164   8.748   7.887
    1   AR   Ar  116   0.367   9.071   9.047
    1   AR   Ar  117  10.464   7.351   9.416
    1   AR   Ar  118   0.276   7.886   8.728
    1   AR   Ar  119   1.176   6.993   1.218
    1   AR   Ar  120   1.860   8.333   8.207
    1   AR   Ar  121  10.569   8.604   0.593
    1   AR   Ar  122   0.732   9.862   0.274
    1   AR   Ar  123   1.082   8.990   0.864
    1   AR   Ar  124   1.184  10.454   9.697
    1   AR   Ar  125  10.432   8.883   4.077
    1   AR   Ar  126  10.076   9.401   2.470
    1   AR   Ar  127   0.794   7.956   5.780
    1   AR   Ar  128   0.919  10.266   1.347
    1   AR   Ar  129   0.341   9.586   4.781
    1   AR   Ar  130  10.440   0.406   3.845
    1   AR   Ar  131   1.708   8.549   4.047
    1   AR   Ar  132   0.627  10.597   4.142
    1   AR   Ar  133   0.242  10.319   5.585
    1   AR   Ar  134   1.331   9.825   6.186
    1   AR   Ar  135   1.173   8.960   7.101
    1   AR   Ar  136   2.336   9.391   5.745
    1   AR   Ar  137  10.047   9.464   8.241
    1   AR   Ar  138   1.471   0.531   7.785
    1   AR   Ar  139   0.611  10.138   8.786
    1   AR   Ar  140   1.574   0.130   8.735
    1   AR   Ar  141   0.193   0.517   8.480
    1   AR   Ar  142  10.184   0.823  10.263
    1   AR   Ar  143   0.390   8.289  10.285
    1   AR   Ar  144   0.121   0.233   9.571
    1   AR   Ar  145   3.178   0.837  10.530
    1   AR   Ar  146   1.310   0.039   0.178
    1   AR   Ar  147   2.628   0.123   0.581
    1   AR   Ar  148   2.247   1.154   0.469
    1   AR   Ar  149   2.278   0.431   3.683
    1   AR   Ar  150   0.558   0.254   2.984
    1   AR   Ar  151   2.321   7.975   3.222
    1   AR   Ar  152   2.115   0.431   2.623
    1   AR   Ar  153   1.467   0.702   4.308
    1   AR   Ar  154   2.201   1.489   3.972
    1   AR   Ar  155   3.201   0.815   4.040
    1   AR   Ar  156   2.435  10.012   2.715
    1   AR   Ar  157   2.433   0.824   6.132
    1   AR   Ar  158   2.853   1.656   6.716
    1   AR   Ar  159   2.776  10.348   6.018
    1   AR   Ar  160   1.814   2.857   5.841
    1   AR   Ar  161   2.894   0.414   7.083
    1   AR   Ar  162   1.881   2.208   6.750
    1   AR   Ar  163   3.869   0.186   7.872
    1   AR   Ar  164   3.036   9.749   7.792
    1   AR   Ar  165   2.837  10.232   9.395
    1   AR   Ar  166   2.532   0.479   9.135
    1   AR   Ar  167   2.821   1.439   9.229
    1   AR   Ar  168   2.417  10.660   8.065
    1   AR   Ar  169   0.603   2.317   0.004
    1   AR   Ar  170  10.560   2.731   0.660
    1   AR   Ar  171   1.798   1.823   1.129
    1   AR   Ar  172   2.308   2.816   9.674
    1   AR   Ar  173   1.442   0.923   3.203
    1   AR   Ar  174   0.673   1.618   1.249
    1   AR   Ar  175   2.364   2.775   2.738
    1   AR   Ar  176   1.473   1.110   2.007
    1   AR   Ar  177   2.214   1.743   3.049
    1   AR   Ar  178   1.137   2.119   4.146
    1   AR   Ar  179   3.273   1.891   4.404
    1   AR   Ar  180   1.351   3.384   4.031
    1   AR   Ar  181   2.416   2.291   5.070
    1   AR   Ar  182   0.913   3.147   5.655
    1   AR   Ar  183   1.391   2.657   4.887
    1   AR   Ar  184   3.432   2.854   4.660
    1   AR   Ar  185   0.623   1.828   7.093
    1   AR   Ar  186   1.424   1.778   7.799
    1   AR   Ar  187   1.079   2.785   7.411
    1   AR   Ar  188   1.025   2.227   6.140
    1   AR   Ar  189   2.128   2.463   8.713
    1   AR   Ar  190   2.008   1.844  10.138
    1   AR   Ar  191   4.148   1.577   0.046
    1   AR   Ar  192   3.404   2.311   8.918
    1   AR   Ar  193   2.265   4.532  10.264
    1   AR   Ar  194   1.383   4.161   0.115
    1   AR   Ar  195   0.935   3.272   0.223
    1   AR   Ar  196   3.409   4.629   9.784
    1   AR   Ar  197   1.227   2.731   1.002
    1   AR   Ar  198   0.473   2.429   1.886
    1   AR   Ar  199   2.404   2.752   1.033
    1   AR   Ar  200   2.969   3.396   1.693
    1   AR   Ar  201   1.602   2.331   2.210
    1   AR   Ar  202   0.052   2.403   2.990
    1   AR   Ar  203   0.674   4.151   5.583
    1   AR   Ar  204   0.094   3.426   3.179
    1   AR   Ar  205   1.038   3.794   6.818
    1   AR   Ar  206   2.058   3.589   6.585
    1   AR   Ar  207   3.585   5.279   4.986
    1   AR   Ar  208   2.059   3.851   5.407
    1   AR   Ar  209   1.893   3.723   7.573
    1   AR   Ar  210   2.915   3.554   7.843
    1   AR   Ar  211   2.469   2.525   7.684
    1   AR   Ar  212   3.917   4.208   5.045
    1   AR   Ar  213   1.186   2.623   8.561
    1   AR   Ar  214   3.033   5.710   8.961
    1   AR   Ar  215   2.004   3.507   8.572
    1   AR   Ar  216   4.386   4.857   7.901
    1   AR   Ar  217   3.284   5.148   0.239
    1   AR   Ar  218   1.847   6.968   2.871
    1   AR   Ar  219   2.723   3.831   0.702
    1   AR   Ar  220   2.747   4.968   1.149
    1   AR   Ar  221   2.032   4.331   1.222
    1   AR   Ar  222   0.778   9.187   3.939
    1   AR   Ar  223   3.445   5.314   1.909
    1   AR   Ar  224   3.279   7.535   2.212
    1   AR   Ar  225   2.896   4.615   3.048
    1   AR   Ar  226   1.258   6.618   3.959
    1   AR   Ar  227   3.097   4.808   4.193
    1   AR   Ar  228   2.207   6.346   4.557
    1   AR   Ar  229   2.414   5.417   4.955
    1   AR   Ar  230   2.219   5.392   6.080
    1   AR   Ar  231   2.136   4.855   6.999
    1   AR   Ar  232   4.364   4.756   4.027
    1   AR   Ar  233   2.065   6.730   6.577
    1   AR   Ar  234   1.455   6.944   7.544
    1   AR   Ar  235   2.270   4.302   9.217
    1   AR   Ar  236   3.399   7.100   7.449
    1   AR   Ar  237   2.300   5.575   9.849
    1   AR   Ar  238   0.773   3.802   7.798
    1   AR   Ar  239   2.180   5.399   0.291
    1   AR   Ar  240   0.169   4.645   8.298
    1   AR   Ar  241   1.303   6.440   0.236
    1   AR   Ar  242   1.688   7.912   0.975
    1   AR   Ar  243   2.158   6.778   1.960
    1   AR   Ar  244   2.668   7.652   9.981
    1   AR   Ar  245   2.581   8.802   1.003
    1   AR   Ar  246   3.519   9.746   5.456
    1   AR   Ar  247   3.497   8.846   3.158
    1   AR   Ar  248   2.369   7.719   1.842
    1   AR   Ar  249   1.902   7.322   3.969
    1   AR   Ar  250   1.574   9.153   5.053
    1   AR   Ar  251   3.659   6.978   5.310
    1   AR   Ar  252   2.296   7.315   5.001
    1   AR   Ar  253   2.738   6.421   5.419
    1   AR   Ar  254   2.781   9.116   6.624
    1   AR   Ar  255   3.214   8.123   6.484
    1   AR   Ar  256   5.289   8.437   6.572
    1   AR   Ar  257   2.066   7.748   6.999
    1   AR   Ar  258   1.449   9.551   9.379
    1   AR   Ar  259   1.217   7.369   8.636
    1   AR   Ar  260   2.739   8.355   7.643
    1   AR   Ar  261   0.832   7.518   9.611
    1   AR   Ar  262   1.926   8.611   9.574
    1   AR   Ar  263   0.185   6.736   7.121
    1   AR   Ar  264   3.126   7.555   8.998
    1   AR   Ar  265   2.116   9.779  10.473
    1   AR   Ar  266   1.949  10.321   1.791
    1   AR   Ar  267   2.321   8.691  10.651
    1   AR   Ar  268   3.435   9.082  10.518
    1   AR   Ar  269   1.065   8.058   3.270
    1   AR   Ar  270   1.362   9.527   3.104
    1   AR   Ar  271   2.145   8.690   2.413
    1   AR   Ar  272   2.918   9.590   1.600
    1   AR   Ar  273   0.371   9.837   3.048
    1   AR   Ar  274   2.589   0.965   4.852
    1   AR   Ar  275   1.693   9.835   4.268
    1   AR   Ar  276   2.911  10.346   4.145
    1   AR   Ar  277   1.746   8.641   6.228
    1   AR   Ar  278   2.035   9.614   7.223
    1   AR   Ar  279   2.780   8.492   5.495
    1   AR   Ar  280   2.699   9.551   4.788
    1   AR   Ar  281   1.043   9.340   8.170
    1   AR   Ar  282   2.283   9.716   8.637
    1   AR   Ar  283   3.008   8.575   9.594
    1   AR   Ar  284   4.281  10.105   6.225
    1   AR   Ar  285   1.201   9.093  10.340
    1   AR   Ar  286   3.169  10.364  10.493
    1   AR   Ar  287   4.682   7.626   0.233
    1   AR   Ar  288   3.647   9.509   9.637
    1   AR   Ar  289   3.701  10.345   1.040
    1   AR   Ar  290   3.596   0.994   1.503
    1   AR   Ar  291   4.532   1.889   1.675
    1   AR   Ar  292   5.346   1.322  10.445
    1   AR   Ar  293   3.242   0.164   2.046
    1   AR   Ar  294   3.455   2.076   2.118
    1   AR   Ar  295   3.934  10.156   2.487
    1   AR   Ar  296   5.107   0.936   3.705
    1   AR   Ar  297   3.194   8.511   4.240
    1   AR   Ar  298   3.741   1.072   5.165
    1   AR   Ar  299   7.052   0.838   5.556
    1   AR   Ar  300   5.110  10.388   4.151
    1   AR   Ar  301   4.336   1.292   8.131
    1   AR   Ar  302   3.498  10.108   6.862
    1   AR   Ar  303   6.047   0.638   5.555
    1   AR   Ar  304   4.141   2.228   5.405
    1   AR   Ar  305   4.496   0.378   6.917
    1   AR   Ar  306   4.365   0.617   8.896
    1   AR   Ar  307   5.526  10.427   7.253
    1   AR   Ar  308   4.512   1.057   5.965
    1   AR   Ar  309   3.950   0.002   9.707
    1   AR   Ar  310   4.079   1.615   9.416
    1   AR   Ar  311   4.874  10.334   8.232
    1   AR   Ar  312   5.333   0.677   7.559
    1   AR   Ar  313   3.544   2.086   1.043
    1   AR   Ar  314   4.031   2.983   1.952
    1   AR   Ar  315   4.571   0.642   0.272
    1   AR   Ar  316   1.852   3.008  10.569
    1   AR   Ar  317   4.736   2.183   2.589
    1   AR   Ar  318   4.354   2.599   3.953
    1   AR   Ar  319   2.201   0.512   1.502
    1   AR   Ar  320   5.476   3.121   1.941
    1   AR   Ar  321   3.134   1.053   2.758
    1   AR   Ar  322   3.655   2.000   3.255
    1   AR   Ar  323   5.250   9.191   4.719
    1   AR   Ar  324   5.322   1.971   3.372
    1   AR   Ar  325   3.233   1.796   5.685
    1   AR   Ar  326   3.426   2.825   7.164
    1   AR   Ar  327   4.284   3.253   4.699
    1   AR   Ar  328   4.823   0.597   4.634
    1   AR   Ar  329   3.190   0.973   8.167
    1   AR   Ar  330   3.700   2.083   7.884
    1   AR   Ar  331   3.833   3.410   8.325
    1   AR   Ar  332   4.685   2.360   7.141
    1   AR   Ar  333   5.332   1.204   8.659
    1   AR   Ar  334   3.590   2.632   9.994
    1   AR   Ar  335   5.939   1.970   9.122
    1   AR   Ar  336   4.280   2.997   9.166
    1   AR   Ar  337   2.917   2.632   0.105
    1   AR   Ar  338   3.616   3.136   0.801
    1   AR   Ar  339   4.605   3.831   1.575
    1   AR   Ar  340   4.003   5.797   1.179
    1   AR   Ar  341   2.378   1.699   2.005
    1   AR   Ar  342   3.520   4.214   2.201
    1   AR   Ar  343   4.043   4.228   3.145
    1   AR   Ar  344   4.191   5.092   2.519
    1   AR   Ar  345   4.182   1.331   4.163
    1   AR   Ar  346   2.232   2.491   4.022
    1   AR   Ar  347   4.670   3.224   2.970
    1   AR   Ar  348   6.061   2.709   3.061
    1   AR   Ar  349   2.244   3.702   3.242
    1   AR   Ar  350   4.898   5.369   4.940
    1   AR   Ar  351   3.353   3.751   3.837
    1   AR   Ar  352   4.910   3.896   3.919
    1   AR   Ar  353   4.765   3.580   5.668
    1   AR   Ar  354   3.067   4.939   7.258
    1   AR   Ar  355   4.994   6.469   6.641
    1   AR   Ar  356   4.790   5.160   6.664
    1   AR   Ar  357   3.702   3.960   7.350
    1   AR   Ar  358   4.497   5.193   9.407
    1   AR   Ar  359   3.603   4.751   8.650
    1   AR   Ar  360   5.361   5.157   7.724
    1   AR   Ar  361   3.811   5.904  10.199
    1   AR   Ar  362   2.157   6.437   0.884
    1   AR   Ar  363   4.996   5.028   0.175
    1   AR   Ar  364   5.322   4.885   8.784
    1   AR   Ar  365   3.836   4.335   0.903
    1   AR   Ar  366   4.011   6.120   2.849
    1   AR   Ar  367   5.603   3.818   3.089
    1   AR   Ar  368   3.466   6.561   1.711
    1   AR   Ar  369   1.878   3.672   2.094
    1   AR   Ar  370   3.945   7.541   6.114
    1   AR   Ar  371   4.243   5.891   4.287
    1   AR   Ar  372   6.225   5.855   3.296
    1   AR   Ar  373   3.451   3.338   2.831
    1   AR   Ar  374   2.965   7.096   6.281
    1   AR   Ar  375   3.939   6.183   6.022
    1   AR   Ar  376   5.370   5.835   4.107
    1   AR   Ar  377   3.123   3.896   6.325
    1   AR   Ar  378   3.330   6.764   8.416
    1   AR   Ar  379   2.601   6.228   7.978
    1   AR   Ar  380   3.664   5.937   7.742
    1   AR   Ar  381   1.842   5.698   8.583
    1   AR   Ar  382   2.598   6.743   9.159
    1   AR   Ar  383   4.483   4.050   8.750
    1   AR   Ar  384   4.521   5.723   8.483
    1   AR   Ar  385   1.993   7.143   0.134
    1   AR   Ar  386   3.870   8.370   0.580
    1   AR   Ar  387   4.796   6.272  10.057
    1   AR   Ar  388   5.412   8.970  10.123
    1   AR   Ar  389   2.809   7.723   0.316
    1   AR   Ar  390   4.435   7.069   2.645
    1   AR   Ar  391   3.667   7.771   3.368
    1   AR   Ar  392   3.890   6.565   0.371
    1   AR   Ar  393   3.010   6.928   2.979
    1   AR   Ar  394   4.975   8.272   4.185
    1   AR   Ar  395   3.930   7.772   4.417
    1   AR   Ar  396   3.217   6.225   4.283
    1   AR   Ar  397   3.701   8.019   8.050
    1   AR   Ar  398   5.151   9.253   7.471
    1   AR   Ar  399   4.200   7.754   9.060
    1   AR   Ar  400   5.344   7.410   6.211
    1   AR   Ar  401   3.962   8.955   8.618
    1   AR   Ar  402   2.201   7.141   8.254
    1   AR   Ar  403   3.513   6.854   9.919
    1   AR   Ar  404   4.388   7.649   7.226
    1   AR   Ar  405   3.953   6.362   9.119
    1   AR   Ar  406   3.786   7.873  10.339
    1   AR   Ar  407   2.781   6.427   0.016
    1   AR   Ar  408   5.468   7.727   9.477
    1   AR   Ar  409   2.834   9.689   0.559
    1   AR   Ar  410   2.125   0.389  10.219
    1   AR   Ar  411   4.495   9.186   0.282
    1   AR   Ar  412   5.727   0.494   1.009
    1   AR   Ar  413   1.755   9.853   0.811
    1   AR   Ar  414   3.314   8.597   1.974
    1   AR   Ar  415   4.816   8.648   1.737
    1   AR   Ar  416   3.668   9.323   1.028
    1   AR   Ar  417   1.532   5.658   3.763
    1   AR   Ar  418   2.334   9.177   3.477
    1   AR   Ar  419   3.006   7.409   4.189
    1   AR   Ar  420   3.665   9.433   4.501
    1   AR   Ar  421   4.657   9.920   5.112
    1   AR   Ar  422   3.791   0.105   4.711
    1   AR   Ar  423   4.846   0.131   5.690
    1   AR   Ar  424   3.809   0.319   6.187
    1   AR   Ar  425   3.742   8.859   7.357
    1   AR   Ar  426   3.719  10.026   8.751
    1   AR   Ar  427   4.770   8.252   8.025
    1   AR   Ar  428   6.408   9.573   7.177
    1   AR   Ar  429   4.406   8.775   9.949
    1   AR   Ar  430   4.275  10.123  10.601
    1   AR   Ar  431   6.386   8.519   9.889
    1   AR   Ar  432   4.230   9.739   7.474
    1   AR   Ar  433   6.377  10.027   1.017
    1   AR   Ar  434   5.232   1.210   2.257
    1   AR   Ar  435   4.813  10.280   1.956
    1   AR   Ar  436   6.351   1.473   0.527
    1   AR   Ar  437   4.147   9.172   2.336
    1   AR   Ar  438   5.122  10.530   3.195
    1   AR   Ar  439   5.778   9.276   3.580
    1   AR   Ar  440   4.158   0.646   2.400
    1   AR   Ar  441   3.086  10.640   3.112
    1   AR   Ar  442   7.745   0.200   4.566
    1   AR   Ar  443   6.709   0.048   4.910
    1   AR   Ar  444   7.334   0.085   3.662
    1   AR   Ar  445   5.374   1.474   5.141
    1   AR   Ar  446   5.641   1.522   6.915
    1   AR   Ar  447   6.521   1.604   6.088
    1   AR   Ar  448   7.662   2.028   5.609
    1   AR   Ar  449   5.628  10.240   6.195
    1   AR   Ar  450   6.133   0.585   6.681
    1   AR   Ar  451   6.557   1.066   8.720
    1   AR   Ar  452   6.776   1.099   7.587
    1   AR   Ar  453   5.792   0.260   8.837
    1   AR   Ar  454   5.160   0.695   9.624
    1   AR   Ar  455   6.403   9.561  10.067
    1   AR   Ar  456   6.286  10.608   9.629
    1   AR   Ar  457   6.110   2.118  10.403
    1   AR   Ar  458   4.615   2.926   0.665
    1   AR   Ar  459   6.003   2.231   1.778
    1   AR   Ar  460   5.617   2.579   0.514
    1   AR   Ar  461   6.893   2.898   2.246
    1   AR   Ar  462   7.734   2.869   1.642
    1   AR   Ar  463   6.460   1.662   2.760
    1   AR   Ar  464   5.639   2.937   9.678
    1   AR   Ar  465   7.393   1.815   1.876
    1   AR   Ar  466   6.403   4.306   4.770
    1   AR   Ar  467   6.149   1.080   4.326
    1   AR   Ar  468   6.155   0.655   3.028
    1   AR   Ar  469   5.980   3.278   5.270
    1   AR   Ar  470   5.898   3.858   6.136
    1   AR   Ar  471   6.619   2.088   7.130
    1   AR   Ar  472   5.775   2.395   5.862
    1   AR   Ar  473   3.238   2.911   5.920
    1   AR   Ar  474   3.706   1.196   7.090
    1   AR   Ar  475   4.717   3.478   7.728
    1   AR   Ar  476   6.128   3.138   7.516
    1   AR   Ar  477   4.610   2.376   8.303
    1   AR   Ar  478   4.775   2.342   9.983
    1   AR   Ar  479   6.266   1.064   9.876
    1   AR   Ar  480   6.994   1.788   9.386
    1   AR   Ar  481   2.972   3.375   8.943
    1   AR   Ar  482   5.094   1.614   0.816
    1   AR   Ar  483   6.321   4.066   9.793
    1   AR   Ar  484   4.287   3.527  10.142
    1   AR   Ar  485   5.135   4.255   2.337
    1   AR   Ar  486   6.279   3.826   1.983
    1   AR   Ar  487   6.384   4.452   1.124
    1   AR   Ar  488   7.425   5.415   2.824
    1   AR   Ar  489   6.769   1.764   3.868
    1   AR   Ar  490   5.359   2.951   3.820
    1   AR   Ar  491   7.360   4.855   5.441
    1   AR   Ar  492   6.920   4.389   3.831
    1   AR   Ar  493   5.897   4.709   4.039
    1   AR   Ar  494   6.498   5.823   6.930
    1   AR   Ar  495   5.323   4.438   5.239
    1   AR   Ar  496   6.449   4.946   6.053
    1   AR   Ar  497   5.934   4.935   6.935
    1   AR   Ar  498   5.456   5.838   5.968
    1   AR   Ar  499   6.266   3.226   8.835
    1   AR   Ar  500   6.924   4.145   6.765
    1   AR   Ar  501   5.324   3.205   8.573
    1   AR   Ar  502   5.031   4.140   9.650
    1   AR   Ar  503   6.970   3.091   9.636
    1   AR   Ar  504   6.665   3.970   7.880
    1   AR   Ar  505   5.459   5.067   9.713
    1   AR   Ar  506   3.776   7.515   1.265
    1   AR   Ar  507   5.949   4.633  10.567
    1   AR   Ar  508   6.554   5.453   0.413
    1   AR   Ar  509   4.845   6.222   1.946
    1   AR   Ar  510   5.079   4.774   3.206
    1   AR   Ar  511   5.699   5.156   0.997
    1   AR   Ar  512   4.912   7.190   1.357
    1   AR   Ar  513   5.064   7.841   5.014
    1   AR   Ar  514   5.876   6.497   7.357
    1   AR   Ar  515   6.643   5.896   5.713
    1   AR   Ar  516   6.346   4.574   2.774
    1   AR   Ar  517   6.077   5.290   5.129
    1   AR   Ar  518   4.706   5.932   7.511
    1   AR   Ar  519   6.949   5.929   7.787
    1   AR   Ar  520   7.790   5.726   5.694
    1   AR   Ar  521   3.429   4.864   5.954
    1   AR   Ar  522   5.492   6.242   8.306
    1   AR   Ar  523   7.717   4.297   7.517
    1   AR   Ar  524   5.466   7.332   8.259
    1   AR   Ar  525   6.293   6.783   8.818
    1   AR   Ar  526   5.601   5.844  10.672
    1   AR   Ar  527   6.792   4.932   9.226
    1   AR   Ar  528   6.498   7.852   8.768
    1   AR   Ar  529   5.027   6.592   0.274
    1   AR   Ar  530   6.023   8.422   1.978
    1   AR   Ar  531   6.462   7.493   9.798
    1   AR   Ar  532   5.789   7.891  10.522
    1   AR   Ar  533   5.187   5.273   2.118
    1   AR   Ar  534   5.569   6.855   2.839
    1   AR   Ar  535   6.722   6.681   2.506
    1   AR   Ar  536   7.046   8.028   1.450
    1   AR   Ar  537   3.945   6.745   3.677
    1   AR   Ar  538   4.714   6.806   4.689
    1   AR   Ar  539   8.077   8.102   5.233
    1   AR   Ar  540   6.856   7.299   3.529
    1   AR   Ar  541   5.763   7.701   7.235
    1   AR   Ar  542   4.769   9.214   5.968
    1   AR   Ar  543   6.169   8.879   8.285
    1   AR   Ar  544   6.692   7.281   4.571
    1   AR   Ar  545   4.317   7.047   8.261
    1   AR   Ar  546   4.950   6.671   9.061
    1   AR   Ar  547   6.881   9.561   9.121
    1   AR   Ar  548   7.387   7.655   7.253
    1   AR   Ar  549   6.256   5.837   9.523
    1   AR   Ar  550   4.490   7.286   9.979
    1   AR   Ar  551   5.631   6.877   9.972
    1   AR   Ar  552   4.662   9.886   9.311
    1   AR   Ar  553   6.000   9.327   0.372
    1   AR   Ar  554   5.365   9.187   2.649
    1   AR   Ar  555   6.123   7.281   0.725
    1   AR   Ar  556   6.697   8.998   0.996
    1   AR   Ar  557   4.527   9.033   3.620
    1   AR   Ar  558   5.022   8.136   3.146
    1   AR   Ar  559   6.566   8.725   3.216
    1   AR   Ar  560   5.580   8.252   1.085
    1   AR   Ar  561   4.150   0.531   3.415
    1   AR   Ar  562   6.151  10.458   3.683
    1   AR   Ar  563   4.975   6.593   3.590
    1   AR   Ar  564   5.982   7.793   2.970
    1   AR   Ar  565   5.643   8.461   5.544
    1   AR   Ar  566   4.026  10.014   3.602
    1   AR   Ar  567   5.882   9.334   6.278
    1   AR   Ar  568   6.055   8.339   4.254
    1   AR   Ar  569   6.517   8.470   7.210
    1   AR   Ar  570   5.967   9.956   8.220
    1   AR   Ar  571   7.020   9.526   8.063
    1   AR   Ar  572   6.546  10.569   7.687
    1   AR   Ar  573   5.068   8.816   9.037
    1   AR   Ar  574   5.467  10.533  10.366
    1   AR   Ar  575   5.716   9.759   9.313
    1   AR   Ar  576   7.352  10.210   9.758
    1   AR   Ar  577   6.565  10.633   0.020
    1   AR   Ar  578   6.868   0.339   1.017
    1   AR   Ar  579   8.583   1.328   0.516
    1   AR   Ar  580   7.442   0.462  10.607
    1   AR   Ar  581   4.962  10.353   0.765
    1   AR   Ar  582   6.312  10.240   2.681
    1   AR   Ar  583   6.999   9.834   1.759
    1   AR   Ar  584   5.618   0.195   2.228
    1   AR   Ar  585   8.119   8.251   1.707
    1   AR   Ar  586   6.755   9.347   4.304
    1   AR   Ar  587   7.698  10.472   6.272
    1   AR   Ar  588   9.167   9.667   2.009
    1   AR   Ar  589   6.690  10.632   6.054
    1   AR   Ar  590   7.173   0.873   6.623
    1   AR   Ar  591  10.306   9.495   6.204
    1   AR   Ar  592   8.066   1.434   6.345
    1   AR   Ar  593   6.789  10.671   8.811
    1   AR   Ar  594   7.477   0.653   8.117
    1   AR   Ar  595   7.816   9.968   8.697
    1   AR   Ar  596   8.154   0.739   7.251
    1   AR   Ar  597   7.567   0.956   9.350
    1   AR   Ar  598   7.107   1.480  10.522
    1   AR   Ar  599   8.141   0.192   9.928
    1   AR   Ar  600   8.671   1.360   8.080
    1   AR   Ar  601   7.907   2.712   0.460
    1   AR   Ar  602   6.597   3.384   1.113
    1   AR   Ar  603   7.426   1.252   0.831
    1   AR   Ar  604   8.851   2.223  10.660
    1   AR   Ar  605   6.503   0.978   1.739
    1   AR   Ar  606   7.125   0.883   2.866
    1   AR   Ar  607   7.213   0.087   2.116
    1   AR   Ar  608   6.893   2.443   0.977
    1   AR   Ar  609   8.456   0.563   3.720
    1   AR   Ar  610   6.887   3.075   4.715
    1   AR   Ar  611   6.552   1.821   5.032
    1   AR   Ar  612   8.204   1.508   3.599
    1   AR   Ar  613   7.889   3.046   5.100
    1   AR   Ar  614   7.465   2.404   6.601
    1   AR   Ar  615   8.551   2.283   6.928
    1   AR   Ar  616   7.087   3.575   5.769
    1   AR   Ar  617   5.820   2.105   7.958
    1   AR   Ar  618   7.009   1.900   8.213
    1   AR   Ar  619   7.812   1.658   7.510
    1   AR   Ar  620   9.516   3.358   6.318
    1   AR   Ar  621   8.016   1.760   8.850
    1   AR   Ar  622   7.811   2.285   9.851
    1   AR   Ar  623   8.702   2.873   8.811
    1   AR   Ar  624   7.339   2.781   8.597
    1   AR   Ar  625   7.376   4.648  10.091
    1   AR   Ar  626   5.061   3.797   0.003
    1   AR   Ar  627   6.200   3.441   0.166
    1   AR   Ar  628   8.257   4.237   9.714
    1   AR   Ar  629   5.613   3.656   0.984
    1   AR   Ar  630   7.988   6.251   1.668
    1   AR   Ar  631   6.307   3.589   3.871
    1   AR   Ar  632   7.554   3.927   1.450
    1   AR   Ar  633   7.807   5.002   3.780
    1   AR   Ar  634   6.893   5.291   4.436
    1   AR   Ar  635   5.819   2.161   4.276
    1   AR   Ar  636   7.044   6.229   3.827
    1   AR   Ar  637   8.331   4.478   6.081
    1   AR   Ar  638   6.523   3.018   6.542
    1   AR   Ar  639   8.936   4.996   5.337
    1   AR   Ar  640   8.496   4.094   3.370
    1   AR   Ar  641   7.288   2.990   7.512
    1   AR   Ar  642   8.080   3.273   6.753
    1   AR   Ar  643   8.794   4.141   7.037
    1   AR   Ar  644   9.801   6.500   7.050
    1   AR   Ar  645   5.552   4.162   8.096
    1   AR   Ar  646   6.502   5.018   8.169
    1   AR   Ar  647   7.271   3.950   9.182
    1   AR   Ar  648   8.565   4.561   8.005
    1   AR   Ar  649   7.770   5.063   1.362
    1   AR   Ar  650   5.741   6.321   0.978
    1   AR   Ar  651   8.805   5.283   1.543
    1   AR   Ar  652   7.659   5.999   0.320
    1   AR   Ar  653   7.314   4.459   0.622
    1   AR   Ar  654   5.692   7.382   4.306
    1   AR   Ar  655   7.895   7.019   2.441
    1   AR   Ar  656   6.578   5.847   1.597
    1   AR   Ar  657   6.095   6.478   4.149
    1   AR   Ar  658   5.716   6.426   5.164
    1   AR   Ar  659   7.340   3.776   2.690
    1   AR   Ar  660   7.008   6.318   4.819
    1   AR   Ar  661   6.327   6.799   6.113
    1   AR   Ar  662   6.725   7.085   7.657
    1   AR   Ar  663   8.232   6.634   5.919
    1   AR   Ar  664   7.552   7.077   5.174
    1   AR   Ar  665   8.422   5.308   7.185
    1   AR   Ar  666   7.297   6.067   8.746
    1   AR   Ar  667   8.270   5.633   8.217
    1   AR   Ar  668   8.914   6.258   8.741
    1   AR   Ar  669   7.611   4.907   8.624
    1   AR   Ar  670   6.479   6.500  10.596
    1   AR   Ar  671   7.012   5.658  10.043
    1   AR   Ar  672   8.180   5.328  10.206
    1   AR   Ar  673   8.328   6.809   0.114
    1   AR   Ar  674   6.701   8.012   0.283
    1   AR   Ar  675   9.460   6.684   2.239
    1   AR   Ar  676   8.567   8.025   0.135
    1   AR   Ar  677   7.337   7.269   0.120
    1   AR   Ar  678   5.848   6.934   1.828
    1   AR   Ar  679   7.093   6.763   1.362
    1   AR   Ar  680   8.920   7.060   3.223
    1   AR   Ar  681   7.130   8.164   4.372
    1   AR   Ar  682   8.173   8.629   4.064
    1   AR   Ar  683   9.180   0.123   5.618
    1   AR   Ar  684   7.584   9.147   4.802
    1   AR   Ar  685   7.635   7.372   6.188
    1   AR   Ar  686   6.227   7.623   5.509
    1   AR   Ar  687   7.229   6.473   6.473
    1   AR   Ar  688   6.592   8.914   5.258
    1   AR   Ar  689   8.438   7.298   6.998
    1   AR   Ar  690   7.448   8.382   8.162
    1   AR   Ar  691   8.670   6.281   6.975
    1   AR   Ar  692   9.849   7.948   6.825
    1   AR   Ar  693   7.272   6.661   9.781
    1   AR   Ar  694   7.294   8.147   9.594
    1   AR   Ar  695   7.779   6.534   7.557
    1   AR   Ar  696   7.391   7.272   8.952
    1   AR   Ar  697   7.740   8.320   0.732
    1   AR   Ar  698   8.614  10.090   1.044
    1   AR   Ar  699   8.225   9.341   1.636
    1   AR   Ar  700   8.126   0.418   0.915
    1   AR   Ar  701   8.164   7.291   1.038
    1   AR   Ar  702   5.713   9.396   1.540
    1   AR   Ar  703   7.570   8.001   3.277
    1   AR   Ar  704   7.480   8.909   2.378
    1   AR   Ar  705   8.448   9.189   2.692
    1   AR   Ar  706   7.338  10.030   5.370
    1   AR   Ar  707   5.774  10.336   5.077
    1   AR   Ar  708   7.598   9.629   3.344
    1   AR   Ar  709   8.071   9.252   7.795
    1   AR   Ar  710   7.510  10.582   7.284
    1   AR   Ar  711   8.004   8.475   6.654
    1   AR   Ar  712   8.222   9.455   5.879
    1   AR   Ar  713   7.032   8.263   6.021
    1   AR   Ar  714   7.600   9.603   6.936
    1   AR   Ar  715   8.681   8.223   7.654
    1   AR   Ar  716   8.198   8.733   8.762
    1   AR   Ar  717   7.180   9.016  10.554
    1   AR   Ar  718   7.396  10.142   0.634
    1   AR   Ar  719   8.352   9.071   0.503
    1   AR   Ar  720   8.124   8.869  10.141
    1   AR   Ar  721   8.333   9.792   9.634
    1   AR   Ar  722   9.237   9.594   3.351
    1   AR   Ar  723   9.685   8.111   3.180
    1   AR   Ar  724   9.071   0.539   1.248
    1   AR   Ar  725   6.892   7.793   2.412
    1   AR   Ar  726   9.019   0.137   2.354
    1   AR   Ar  727   0.243  10.335   2.182
    1   AR   Ar  728  10.173   8.868   1.513
    1   AR   Ar  729   8.327  10.259   2.964
    1   AR   Ar  730   8.378   0.849   5.133
    1   AR   Ar  731   9.368  10.624   3.933
    1   AR   Ar  732   9.463   0.879   3.362
    1   AR   Ar  733   8.738   2.636   5.587
    1   AR   Ar  734   8.917   0.742   6.438
    1   AR   Ar  735  10.074  10.273   4.911
    1   AR   Ar  736   8.480  10.128   4.994
    1   AR   Ar  737   9.114   9.833   7.927
    1   AR   Ar  738   8.421   0.007   8.060
    1   AR   Ar  739   0.578   0.814   7.070
    1   AR   Ar  740   9.120   0.523   7.456
    1   AR   Ar  741   9.670  10.556  10.061
    1   AR   Ar  742   8.626   0.957   9.353
    1   AR   Ar  743   8.970   0.549  10.425
    1   AR   Ar  744   9.817   1.172   7.995
    1   AR   Ar  745   8.106   1.393  10.190
    1   AR   Ar  746  10.220   1.838   0.094
    1   AR   Ar  747   9.166   2.111   0.957
    1   AR   Ar  748   9.013   1.831   9.154
    1   AR   Ar  749   8.101   1.963   1.186
    1   AR   Ar  750   8.183   2.698   2.887
    1   AR   Ar  751   9.949  10.635   3.052
    1   AR   Ar  752   9.644   2.949   0.266
    1   AR   Ar  753   8.380   1.051   2.719
    1   AR   Ar  754   7.546   3.807   4.450
    1   AR   Ar  755   9.293   0.561   4.666
    1   AR   Ar  756   8.832   2.692   1.735
    1   AR   Ar  757   7.639   2.053   4.519
    1   AR   Ar  758   9.726   2.279   6.547
    1   AR   Ar  759   9.915  10.563   6.256
    1   AR   Ar  760   0.359   2.315   5.119
    1   AR   Ar  761   8.177   2.557   7.862
    1   AR   Ar  762   9.203   2.529   7.910
    1   AR   Ar  763  10.238   2.163   7.684
    1   AR   Ar  764   9.781   3.186   7.356
    1   AR   Ar  765  10.025   1.104   6.754
    1   AR   Ar  766   7.908   3.662   8.361
    1   AR   Ar  767   9.648   0.595   9.201
    1   AR   Ar  768  10.588   1.973   9.884
    1   AR   Ar  769   7.946   3.233   9.433
    1   AR   Ar  770   7.311   3.536   0.145
    1   AR   Ar  771   8.273   3.214  10.368
    1   AR   Ar  772   8.282   4.192   0.166
    1   AR   Ar  773   8.687   3.362   0.710
    1   AR   Ar  774   8.560   4.162   1.401
    1   AR   Ar  775   9.476   3.873   1.927
    1   AR   Ar  776   9.288   4.243   0.349
    1   AR   Ar  777   7.028   2.792   3.722
    1   AR   Ar  778   8.144   5.989   3.518
    1   AR   Ar  779   9.066   4.262   4.302
    1   AR   Ar  780   8.984   4.802   2.872
    1   AR   Ar  781   8.656   3.833   5.126
    1   AR   Ar  782   9.037   5.460   6.303
    1   AR   Ar  783   9.927   2.756   5.661
    1   AR   Ar  784   8.907   5.227   3.978
    1   AR   Ar  785   9.375   4.547   6.210
    1   AR   Ar  786   9.786   4.338   8.133
    1   AR   Ar  787   8.972   3.578   7.904
    1   AR   Ar  788  10.567   5.780   6.503
    1   AR   Ar  789  10.069   4.722   9.149
    1   AR   Ar  790  10.084   5.618  10.216
    1   AR   Ar  791   9.431   3.763   8.929
    1   AR   Ar  792  10.377   3.268   9.515
    1   AR   Ar  793   8.723   5.347   0.438
    1   AR   Ar  794   9.165   6.192  10.541
    1   AR   Ar  795   9.985   5.020   0.528
    1   AR   Ar  796   0.369   6.247   1.037
    1   AR   Ar  797  10.621   4.671   1.449
    1   AR   Ar  798  10.462   6.873   2.143
    1   AR   Ar  799   8.044   4.568   2.228
    1   AR   Ar  800   0.212   7.148   4.003
    1   AR   Ar  801   8.687   5.835   2.605
    1   AR   Ar  802   7.816   7.064   3.714
    1   AR   Ar  803   9.446   5.888   3.369
    1   AR   Ar  804   0.353   7.390   4.973
    1   AR   Ar  805   7.960   6.258   4.542
    1   AR   Ar  806   8.854   6.021   5.121
    1   AR   Ar  807   9.877   4.536   5.059
    1   AR   Ar  808  10.644   6.274   4.619
    1   AR   Ar  809   9.605   5.464   7.359
    1   AR   Ar  810   8.499   6.523   9.718
    1   AR   Ar  811  10.091   6.755   8.376
    1   AR   Ar  812  10.197   5.793   5.451
    1   AR   Ar  813   9.313   5.300   8.407
    1   AR   Ar  814   8.854   5.512   9.344
    1   AR   Ar  815   9.845   5.997   9.217
    1   AR   Ar  816   9.055   7.340  10.184
    1   AR   Ar  817   8.407   7.969   9.450
    1   AR   Ar  818  10.110   7.444  10.611
    1   AR   Ar  819  10.261   3.785   0.975
    1   AR   Ar  820   9.508   8.520   0.145
    1   AR   Ar  821  10.041   6.768   3.348
    1   AR   Ar  822   8.950   6.623   1.042
    1   AR   Ar  823   8.660   8.240   3.072
    1   AR   Ar  824   1.359   7.828   2.289
    1   AR   Ar  825   9.373   8.262   5.147
    1   AR   Ar  826   8.520   9.801   4.025
    1   AR   Ar  827  10.356   8.347   5.251
    1   AR   Ar  828   9.214   6.503   4.125
    1   AR   Ar  829   8.933   7.396   5.952
    1   AR   Ar  830   8.576   8.933   5.050
    1   AR   Ar  831   0.542   5.386   5.566
    1   AR   Ar  832   0.371   6.660   5.806
    1   AR   Ar  833   9.488   6.375   6.047
    1   AR   Ar  834   9.057   7.968   8.516
    1   AR   Ar  835  10.554   7.565   7.704
    1   AR   Ar  836   8.946   6.855   7.783
    1   AR   Ar  837   9.522   7.123   9.145
    1   AR   Ar  838   9.227   9.470  10.456
    1   AR   Ar  839   9.663   8.057   9.757
    1   AR   Ar  840  10.057   9.004   9.966
    1   AR   Ar  841   9.434  10.484   0.376
    1   AR   Ar  842   9.108   8.516   2.088
    1   AR   Ar  843   9.438   8.071   1.069
    1   AR   Ar  844   8.313  10.062   0.007
    1   AR   Ar  845   0.439   9.305   2.031
    1   AR   Ar  846   9.412   9.320   0.835
    1   AR   Ar  847   0.581   8.568   4.786
    1   AR   Ar  848   9.727  10.201   1.313
    1   AR   Ar  849   9.337   9.615   4.615
    1   AR   Ar  850   8.628  10.388   7.036
    1   AR   Ar  851   8.996   8.548   6.107
    1   AR   Ar  852   9.324   8.632   4.051
    1   AR   Ar  853   8.935   9.280   6.997
    1   AR   Ar  854   9.364   9.786   5.695
    1   AR   Ar  855  10.279   0.238   7.390
    1   AR   Ar  856  10.435   9.976   3.842
    1   AR   Ar  857   0.180   9.625   7.186
    1   AR   Ar  858   8.697  10.593   9.017
    1   AR   Ar  859   9.133   9.055   9.009
    1   AR   Ar  860   9.811  10.535   8.398
    1   AR   Ar  861   8.163   7.388   8.202
    1   AR   Ar  862   0.187   9.940   9.999
    1   AR   Ar  863  10.280   9.745   0.175
    1   AR   Ar  864  10.137   9.875   9.155
   10.68000 10.68000 10.68000
