Argon-bulk
  864
    1   AR   Ar    1-18446744073709551616.000   0.000   0.000
    1   AR   Ar    2   0.000-576460752303423488.000   0.000
    1   AR   Ar    3-18446744073709551616.000   0.000   0.000
    1   AR   Ar    4   0.000   0.000   0.000
    1   AR   Ar    518446744073709551616.000   0.000   0.000
    1   AR   Ar    61152921504606846976.000   0.00067108864.000
    1   AR   Ar    7-18446744073709551616.000   0.000   0.000
    1   AR   Ar    8-18446744073709551616.000   0.000   0.000
    1   AR   Ar    9   0.000   0.000   0.000
    1   AR   Ar   10-4611686018427387904.000   0.000   0.000
    1   AR   Ar   11-18446744073709551616.000   0.000-1073741824.000
    1   AR   Ar   12   0.000   0.000   0.000
    1   AR   Ar   13-18446744073709551616.000   0.000   0.000
    1   AR   Ar   14-18446744073709551616.000   0.000-1073741824.000
    1   AR   Ar   15-18446744073709551616.000   0.000-1073741824.000
    1   AR   Ar   16-18446744073709551616.000-576460752303423488.000   0.000
    1   AR   Ar   17-18446744073709551616.000   0.000   0.000
    1   AR   Ar   18   0.000   0.000   0.000
    1   AR   Ar   19-18446744073709551616.000   0.000-1073741824.000
    1   AR   Ar   20-18446744073709551616.000   0.000   0.000
    1   AR   Ar   21-18446744073709551616.000   0.000   0.000
    1   AR   Ar   22   0.000   0.000   0.000
    1   AR   Ar   23   0.000   0.000   0.000
    1   AR   Ar   24-18446744073709551616.000   0.000-536870912.000
    1   AR   Ar   25-18446744073709551616.000   0.000   0.000
    1   AR   Ar   26   0.000   0.0001073741824.000
    1   AR   Ar   27-18446744073709551616.000   0.000   0.000
    1   AR   Ar   28-18446744073709551616.000   0.000   0.000
    1   AR   Ar   29-2305843009213693952.000   0.000   0.000
    1   AR   Ar   30-18446744073709551616.000   0.0001073741824.000
    1   AR   Ar   31   0.000   0.000   0.000
    1   AR   Ar   32-18446744073709551616.000   0.0001073741824.000
    1   AR   Ar   33   0.000   0.000   0.000
    1   AR   Ar   34-18446744073709551616.000   0.000   0.000
    1   AR   Ar   35-18446744073709551616.000   0.000   0.000
    1   AR   Ar   36   0.000   0.000   0.000
    1   AR   Ar   37-18446744073709551616.000   0.000   0.000
    1   AR   Ar   38   0.000   0.000   0.000
    1   AR   Ar   39   0.000   0.000   0.000
    1   AR   Ar   40-18446744073709551616.000   0.0001073741824.000
    1   AR   Ar   41-18446744073709551616.000   0.000   0.000
    1   AR   Ar   42-18446744073709551616.000   0.000-1073741824.000
    1   AR   Ar   434611686018427387904.000   0.000   0.000
    1   AR   Ar   44   0.000   0.000   0.000
    1   AR   Ar   45   0.000   0.000   0.000
    1   AR   Ar   46   0.000   0.000   0.000
    1   AR   Ar   47   0.000   0.000   0.000
    1   AR   Ar   48-18446744073709551616.000   0.0001073741824.000
    1   AR   Ar   49   0.000   0.000   0.000
    1   AR   Ar   50   0.000   0.000   0.000
    1   AR   Ar   51   0.000   0.000   0.000
    1   AR   Ar   52   0.000   0.000   0.000
    1   AR   Ar   53   0.000   0.000-134217728.000
    1   AR   Ar   54-18446744073709551616.000   0.000   0.000
    1   AR   Ar   55-18446744073709551616.000   0.000-1073741824.000
    1   AR   Ar   56-2305843009213693952.000288230376151711744.000-134217728.000
    1   AR   Ar   57-18446744073709551616.000   0.0001073741824.000
    1   AR   Ar   58   0.000   0.000   0.000
    1   AR   Ar   59-18446744073709551616.000   0.0001073741824.000
    1   AR   Ar   60-18446744073709551616.000   0.000   0.000
    1   AR   Ar   61   0.000   0.000   0.000
    1   AR   Ar   62   0.000   0.000   0.000
    1   AR   Ar   63   0.000   0.000   0.000
    1   AR   Ar   64   0.000   0.000   0.000
    1   AR   Ar   65-18446744073709551616.000   0.000   0.000
    1   AR   Ar   66   0.000   0.000   0.000
    1   AR   Ar   67   0.000   0.000   0.000
    1   AR   Ar   6818446744073709551616.000-576460752303423488.000   0.000
    1   AR   Ar   69   0.000   0.000   0.000
    1   AR   Ar   70-18446744073709551616.000   0.000   0.000
    1   AR   Ar   71   0.000   0.000   0.000
    1   AR   Ar   72   0.000   0.000   0.000
    1   AR   Ar   73   0.000   0.000   0.000
    1   AR   Ar   74   0.000-576460752303423488.000   0.000
    1   AR   Ar   75   0.000   0.000   0.000
    1   AR   Ar   76   0.000-576460752303423488.000   0.000
    1   AR   Ar   77   0.000   0.000   0.000
    1   AR   Ar   78-18446744073709551616.000   0.000-1073741824.000
    1   AR   Ar   79   0.000   0.000   0.000
    1   AR   Ar   80-18446744073709551616.000   0.000   0.000
    1   AR   Ar   81   0.000-576460752303423488.000   0.000
    1   AR   Ar   82-18446744073709551616.000   0.000   0.000
    1   AR   Ar   83-18446744073709551616.000   0.000   0.000
    1   AR   Ar   84-18446744073709551616.000   0.0001073741824.000
    1   AR   Ar   8518446744073709551616.000-576460752303423488.000   0.000
    1   AR   Ar   86-18446744073709551616.000   0.000268435456.000
    1   AR   Ar   87   0.000   0.000   0.000
    1   AR   Ar   88-18446744073709551616.000   0.000   0.000
    1   AR   Ar   89   0.000-576460752303423488.000   0.000
    1   AR   Ar   90-18446744073709551616.000-576460752303423488.000   0.000
    1   AR   Ar   91   0.000   0.000   0.000
    1   AR   Ar   92   0.000   0.000   0.000
    1   AR   Ar   93-18446744073709551616.000   0.000   0.000
    1   AR   Ar   94-18446744073709551616.000   0.000-536870912.000
    1   AR   Ar   95-2305843009213693952.000   0.000   0.000
    1   AR   Ar   96-18446744073709551616.000   0.000   0.000
    1   AR   Ar   97-18446744073709551616.000   0.000   0.000
    1   AR   Ar   98-18446744073709551616.000   0.000-1073741824.000
    1   AR   Ar   99   0.000   0.000   0.000
    1   AR   Ar  1001152921504606846976.000   0.000   0.000
    1   AR   Ar  1011152921504606846976.000   0.000   0.000
    1   AR   Ar  102   0.000   0.000   0.000
    1   AR   Ar  103   0.000   0.000   0.000
    1   AR   Ar  104   0.000   0.000   0.000
    1   AR   Ar  105-18446744073709551616.000   0.000-536870912.000
    1   AR   Ar  106-18446744073709551616.000   0.000   0.000
    1   AR   Ar  107-4611686018427387904.000-576460752303423488.000   0.000
    1   AR   Ar  108   0.000-288230376151711744.000   0.000
    1   AR   Ar  109-18446744073709551616.000   0.000   0.000
    1   AR   Ar  110   0.000   0.000   0.000
    1   AR   Ar  111-18446744073709551616.000   0.000   0.000
    1   AR   Ar  112-4611686018427387904.000   0.000   0.000
    1   AR   Ar  113   0.000-576460752303423488.000   0.000
    1   AR   Ar  114   0.000   0.000   0.000
    1   AR   Ar  115-18446744073709551616.000   0.000   0.000
    1   AR   Ar  116-18446744073709551616.000   0.0001073741824.000
    1   AR   Ar  117   0.000   0.000   0.000
    1   AR   Ar  118   0.000   0.000   0.000
    1   AR   Ar  119   0.000   0.000-536870912.000
    1   AR   Ar  120-18446744073709551616.000   0.000-1073741824.000
    1   AR   Ar  121-18446744073709551616.000   0.000   0.000
    1   AR   Ar  122   0.000   0.000   0.000
    1   AR   Ar  123   0.000   0.000   0.000
    1   AR   Ar  124   0.000   0.000-33554432.000
    1   AR   Ar  125   0.000   0.000-536870912.000
    1   AR   Ar  126-18446744073709551616.000   0.000-1073741824.000
    1   AR   Ar  127   0.000   0.000   0.000
    1   AR   Ar  128-18446744073709551616.000   0.000   0.000
    1   AR   Ar  129-4611686018427387904.000   0.000   0.000
    1   AR   Ar  130   0.000   0.000   0.000
    1   AR   Ar  131   0.000   0.000   0.000
    1   AR   Ar  132-18446744073709551616.000   0.000   0.000
    1   AR   Ar  133   0.000-576460752303423488.000   0.000
    1   AR   Ar  134   0.000   0.000   0.000
    1   AR   Ar  135-18446744073709551616.000   0.000   0.000
    1   AR   Ar  136-18446744073709551616.000   0.000   0.000
    1   AR   Ar  137   0.000-576460752303423488.000   0.000
    1   AR   Ar  138   0.000   0.000268435456.000
    1   AR   Ar  139-18446744073709551616.000   0.000   0.000
    1   AR   Ar  140   0.000   0.000   0.000
    1   AR   Ar  141   0.000   0.000   0.000
    1   AR   Ar  142   0.000-576460752303423488.000   0.000
    1   AR   Ar  14318446744073709551616.000   0.000   0.000
    1   AR   Ar  1444611686018427387904.000   0.000   0.000
    1   AR   Ar  145   0.000   0.000   0.000
    1   AR   Ar  146-4611686018427387904.000   0.000   0.000
    1   AR   Ar  147-18446744073709551616.000   0.000   0.000
    1   AR   Ar  148-18446744073709551616.000   0.000   0.000
    1   AR   Ar  149   0.000   0.000   0.000
    1   AR   Ar  150   0.000   0.000   0.000
    1   AR   Ar  151   0.000   0.000   0.000
    1   AR   Ar  152-18446744073709551616.000   0.000   0.000
    1   AR   Ar  153   0.000   0.000   0.000
    1   AR   Ar  154-18446744073709551616.000   0.000   0.000
    1   AR   Ar  155   0.000   0.000   0.000
    1   AR   Ar  156   0.000   0.00067108864.000
    1   AR   Ar  157   0.000   0.000   0.000
    1   AR   Ar  158   0.000-576460752303423488.000268435456.000
    1   AR   Ar  159-18446744073709551616.000   0.000   0.000
    1   AR   Ar  160   0.000   0.000   0.000
    1   AR   Ar  161-18446744073709551616.000   0.000   0.000
    1   AR   Ar  162-18446744073709551616.000   0.000   0.000
    1   AR   Ar  163   0.000   0.000   0.000
    1   AR   Ar  164   0.000   0.000   0.000
    1   AR   Ar  165-4611686018427387904.000   0.000   0.000
    1   AR   Ar  166   0.000   0.000   0.000
    1   AR   Ar  167-18446744073709551616.000   0.000   0.000
    1   AR   Ar  168-18446744073709551616.000   0.000-1073741824.000
    1   AR   Ar  169   0.000-576460752303423488.000   0.000
    1   AR   Ar  170-18446744073709551616.000   0.000   0.000
    1   AR   Ar  171   0.000-576460752303423488.000   0.000
    1   AR   Ar  172   0.000-72057594037927936.000   0.000
    1   AR   Ar  173-18446744073709551616.000576460752303423488.000   0.000
    1   AR   Ar  174   0.000   0.000   0.000
    1   AR   Ar  175   0.000   0.000   0.000
    1   AR   Ar  176   0.000   0.000   0.000
    1   AR   Ar  177-18446744073709551616.000   0.000   0.000
    1   AR   Ar  178   0.000   0.000   0.000
    1   AR   Ar  179   0.000   0.000   0.000
    1   AR   Ar  180-18446744073709551616.000   0.000   0.000
    1   AR   Ar  181-18446744073709551616.000   0.000-1073741824.000
    1   AR   Ar  18218446744073709551616.000   0.000   0.000
    1   AR   Ar  183-18446744073709551616.000   0.000   0.000
    1   AR   Ar  184   0.000   0.000   0.000
    1   AR   Ar  185-18446744073709551616.000   0.000   0.000
    1   AR   Ar  186576460752303423488.000   0.00033554432.000
    1   AR   Ar  187-18446744073709551616.000   0.000   0.000
    1   AR   Ar  188   0.000   0.000   0.000
    1   AR   Ar  189   0.000   0.000   0.000
    1   AR   Ar  190   0.000-576460752303423488.000   0.000
    1   AR   Ar  191-18446744073709551616.000   0.000   0.000
    1   AR   Ar  192   0.000   0.000   0.000
    1   AR   Ar  193   0.000   0.000-268435456.000
    1   AR   Ar  194   0.000-576460752303423488.000   0.000
    1   AR   Ar  19518446744073709551616.000   0.000   0.000
    1   AR   Ar  196-18446744073709551616.000   0.000   0.000
    1   AR   Ar  197-18446744073709551616.000   0.000-1073741824.000
    1   AR   Ar  198   0.000   0.000   0.000
    1   AR   Ar  199   0.000   0.000   0.000
    1   AR   Ar  200   0.000   0.000   0.000
    1   AR   Ar  201   0.000   0.000   0.000
    1   AR   Ar  202   0.000   0.000   0.000
    1   AR   Ar  203   0.000   0.000   0.000
    1   AR   Ar  204-2305843009213693952.000   0.000   0.000
    1   AR   Ar  205-18446744073709551616.000   0.000   0.000
    1   AR   Ar  206-18446744073709551616.000   0.000   0.000
    1   AR   Ar  207   0.000   0.000   0.000
    1   AR   Ar  208   0.000   0.000   0.000
    1   AR   Ar  209-18446744073709551616.000   0.0001073741824.000
    1   AR   Ar  210-18446744073709551616.000   0.000   0.000
    1   AR   Ar  211   0.000   0.000   0.000
    1   AR   Ar  212-18446744073709551616.000   0.000   0.000
    1   AR   Ar  213   0.000   0.000   0.000
    1   AR   Ar  214-18446744073709551616.000   0.000   0.000
    1   AR   Ar  215-18446744073709551616.000   0.000   0.000
    1   AR   Ar  216   0.000-576460752303423488.000   0.000
    1   AR   Ar  21718446744073709551616.000-576460752303423488.000   0.000
    1   AR   Ar  218   0.000   0.000   0.000
    1   AR   Ar  219   0.000-288230376151711744.000   0.000
    1   AR   Ar  220-18446744073709551616.000   0.000   0.000
    1   AR   Ar  221-18446744073709551616.000   0.000   0.000
    1   AR   Ar  222-18446744073709551616.000   0.000-1073741824.000
    1   AR   Ar  223-18446744073709551616.000   0.000   0.000
    1   AR   Ar  224-18446744073709551616.000   0.0001073741824.000
    1   AR   Ar  225   0.000   0.000   0.000
    1   AR   Ar  226-18446744073709551616.000   0.000   0.000
    1   AR   Ar  227   0.000   0.000   0.000
    1   AR   Ar  228-18446744073709551616.000   0.0001073741824.000
    1   AR   Ar  229-18446744073709551616.000   0.000   0.000
    1   AR   Ar  230   0.000   0.000   0.000
    1   AR   Ar  231   0.000   0.0001073741824.000
    1   AR   Ar  232   0.000   0.000   0.000
    1   AR   Ar  233   0.000   0.000   0.000
    1   AR   Ar  234   0.000   0.000   0.000
    1   AR   Ar  235   0.000   0.000   0.000
    1   AR   Ar  236   0.000   0.000-33554432.000
    1   AR   Ar  237-18446744073709551616.000   0.000   0.000
    1   AR   Ar  238-18446744073709551616.000   0.000   0.000
    1   AR   Ar  239   0.000   0.000   0.000
    1   AR   Ar  2402305843009213693952.000-288230376151711744.000134217728.000
    1   AR   Ar  241   0.000288230376151711744.000   0.000
    1   AR   Ar  242   0.000-576460752303423488.000   0.000
    1   AR   Ar  243-18446744073709551616.000   0.000   0.000
    1   AR   Ar  244   0.000   0.000-134217728.000
    1   AR   Ar  245   0.000   0.000   0.000
    1   AR   Ar  246   0.000   0.000   0.000
    1   AR   Ar  247   0.000   0.000   0.000
    1   AR   Ar  248-18446744073709551616.000   0.000   0.000
    1   AR   Ar  249   0.000   0.000   0.000
    1   AR   Ar  250   0.000   0.00033554432.000
    1   AR   Ar  251-18446744073709551616.000   0.000   0.000
    1   AR   Ar  252   0.000   0.000   0.000
    1   AR   Ar  253   0.000   0.000   0.000
    1   AR   Ar  254   0.000   0.000   0.000
    1   AR   Ar  255   0.000   0.000   0.000
    1   AR   Ar  256-18446744073709551616.000   0.000536870912.000
    1   AR   Ar  257   0.000   0.000   0.000
    1   AR   Ar  258-18446744073709551616.000   0.0001073741824.000
    1   AR   Ar  259-18446744073709551616.000   0.000   0.000
    1   AR   Ar  260   0.000   0.000   0.000
    1   AR   Ar  261-2305843009213693952.000   0.000134217728.000
    1   AR   Ar  262-18446744073709551616.000   0.000   0.000
    1   AR   Ar  263-18446744073709551616.000   0.000   0.000
    1   AR   Ar  264-18446744073709551616.000   0.000   0.000
    1   AR   Ar  265-18446744073709551616.000   0.0001073741824.000
    1   AR   Ar  266-18446744073709551616.000   0.000   0.000
    1   AR   Ar  267-18446744073709551616.000   0.000   0.000
    1   AR   Ar  268   0.000   0.000   0.000
    1   AR   Ar  269-18446744073709551616.000576460752303423488.000   0.000
    1   AR   Ar  270   0.000   0.000   0.000
    1   AR   Ar  271   0.000   0.000   0.000
    1   AR   Ar  272   0.000-288230376151711744.000   0.000
    1   AR   Ar  273-18446744073709551616.000   0.000   0.000
    1   AR   Ar  274-18446744073709551616.000   0.000-1073741824.000
    1   AR   Ar  275-4611686018427387904.000-576460752303423488.000   0.000
    1   AR   Ar  276   0.000   0.000   0.000
    1   AR   Ar  277-18446744073709551616.000   0.000   0.000
    1   AR   Ar  278-18446744073709551616.000   0.000-1073741824.000
    1   AR   Ar  279-18446744073709551616.000   0.0001073741824.000
    1   AR   Ar  280   0.000   0.000-134217728.000
    1   AR   Ar  281-18446744073709551616.000   0.000   0.000
    1   AR   Ar  282-18446744073709551616.000   0.000   0.000
    1   AR   Ar  283-18446744073709551616.000   0.0001073741824.000
    1   AR   Ar  2844611686018427387904.000-576460752303423488.000268435456.000
    1   AR   Ar  285   0.000   0.000   0.000
    1   AR   Ar  2864611686018427387904.000   0.000   0.000
    1   AR   Ar  287-18446744073709551616.000   0.000-1073741824.000
    1   AR   Ar  288-18446744073709551616.000   0.000   0.000
    1   AR   Ar  289-18446744073709551616.000   0.000   0.000
    1   AR   Ar  290   0.000   0.000   0.000
    1   AR   Ar  291-18446744073709551616.000   0.000   0.000
    1   AR   Ar  292   0.000   0.000   0.000
    1   AR   Ar  293   0.000   0.000   0.000
    1   AR   Ar  294   0.000   0.000   0.000
    1   AR   Ar  295-2305843009213693952.000288230376151711744.000134217728.000
    1   AR   Ar  296-18446744073709551616.000   0.000-536870912.000
    1   AR   Ar  297   0.000   0.000   0.000
    1   AR   Ar  298   0.000   0.000   0.000
    1   AR   Ar  299   0.000   0.0001073741824.000
    1   AR   Ar  300   0.000-576460752303423488.000   0.000
    1   AR   Ar  301   0.000   0.000-134217728.000
    1   AR   Ar  302-18446744073709551616.000   0.000   0.000
    1   AR   Ar  303-18446744073709551616.000   0.0001073741824.000
    1   AR   Ar  304-18446744073709551616.000   0.000   0.000
    1   AR   Ar  305   0.000   0.000   0.000
    1   AR   Ar  306-18446744073709551616.000   0.000   0.000
    1   AR   Ar  307   0.000   0.000   0.000
    1   AR   Ar  308-18446744073709551616.000   0.000   0.000
    1   AR   Ar  309   0.000   0.000   0.000
    1   AR   Ar  310-18446744073709551616.000   0.000   0.000
    1   AR   Ar  311   0.000   0.000   0.000
    1   AR   Ar  312   0.000   0.000   0.000
    1   AR   Ar  313-18446744073709551616.000   0.000   0.000
    1   AR   Ar  314-18446744073709551616.000   0.000   0.000
    1   AR   Ar  315-18446744073709551616.000   0.000   0.000
    1   AR   Ar  316   0.000   0.000   0.000
    1   AR   Ar  317   0.000   0.000   0.000
    1   AR   Ar  318   0.000   0.000   0.000
    1   AR   Ar  319-18446744073709551616.000   0.000   0.000
    1   AR   Ar  320   0.000   0.000   0.000
    1   AR   Ar  321-18446744073709551616.000   0.000   0.000
    1   AR   Ar  322   0.000   0.000   0.000
    1   AR   Ar  323   0.000   0.000   0.000
    1   AR   Ar  324   0.000576460752303423488.000   0.000
    1   AR   Ar  325-18446744073709551616.000   0.000   0.000
    1   AR   Ar  326   0.000   0.000   0.000
    1   AR   Ar  327-18446744073709551616.000   0.000   0.000
    1   AR   Ar  328-18446744073709551616.000   0.000-1073741824.000
    1   AR   Ar  329-4611686018427387904.000   0.000   0.000
    1   AR   Ar  330-18446744073709551616.000-576460752303423488.000-268435456.000
    1   AR   Ar  331   0.000   0.000   0.000
    1   AR   Ar  332   0.000   0.000   0.000
    1   AR   Ar  333-18446744073709551616.000   0.000   0.000
    1   AR   Ar  334   0.000288230376151711744.000134217728.000
    1   AR   Ar  335   0.000   0.000   0.000
    1   AR   Ar  336-18446744073709551616.000   0.000   0.000
    1   AR   Ar  337   0.000   0.000   0.000
    1   AR   Ar  3384611686018427387904.000-576460752303423488.000   0.000
    1   AR   Ar  339   0.000   0.000   0.000
    1   AR   Ar  340   0.000-576460752303423488.000   0.000
    1   AR   Ar  341   0.000288230376151711744.000   0.000
    1   AR   Ar  342   0.000   0.000   0.000
    1   AR   Ar  343-18446744073709551616.000   0.000   0.000
    1   AR   Ar  344   0.000   0.000   0.000
    1   AR   Ar  345-18446744073709551616.000   0.000-1073741824.000
    1   AR   Ar  346-18446744073709551616.000   0.000   0.000
    1   AR   Ar  347-18446744073709551616.000   0.000   0.000
    1   AR   Ar  348   0.000   0.000   0.000
    1   AR   Ar  349-18446744073709551616.000   0.000   0.000
    1   AR   Ar  350-18446744073709551616.000   0.000   0.000
    1   AR   Ar  351-18446744073709551616.000   0.000   0.000
    1   AR   Ar  3524611686018427387904.000   0.000   0.000
    1   AR   Ar  353-18446744073709551616.000   0.000   0.000
    1   AR   Ar  354-18446744073709551616.000   0.000-1073741824.000
    1   AR   Ar  355   0.000   0.000   0.000
    1   AR   Ar  356   0.000-576460752303423488.000   0.000
    1   AR   Ar  357-18446744073709551616.000   0.000-1073741824.000
    1   AR   Ar  358   0.000   0.000134217728.000
    1   AR   Ar  359   0.000   0.000   0.000
    1   AR   Ar  360   0.000   0.000268435456.000
    1   AR   Ar  361   0.000   0.000268435456.000
    1   AR   Ar  362   0.000   0.000   0.000
    1   AR   Ar  363-2305843009213693952.000-288230376151711744.000-134217728.000
    1   AR   Ar  364   0.000   0.000   0.000
    1   AR   Ar  365   0.000   0.000   0.000
    1   AR   Ar  366-18446744073709551616.000   0.0001073741824.000
    1   AR   Ar  367-18446744073709551616.000   0.000-1073741824.000
    1   AR   Ar  368   0.000   0.000   0.000
    1   AR   Ar  369   0.000   0.000   0.000
    1   AR   Ar  370   0.000   0.000   0.000
    1   AR   Ar  3714611686018427387904.000-576460752303423488.000   0.000
    1   AR   Ar  372-18446744073709551616.000   0.000-1073741824.000
    1   AR   Ar  373   0.000-576460752303423488.000   0.000
    1   AR   Ar  374-18446744073709551616.000   0.000536870912.000
    1   AR   Ar  375   0.000   0.000   0.000
    1   AR   Ar  376-18446744073709551616.000   0.000   0.000
    1   AR   Ar  377-18446744073709551616.000   0.000   0.000
    1   AR   Ar  378   0.000   0.000   0.000
    1   AR   Ar  379-18446744073709551616.000   0.000-1073741824.000
    1   AR   Ar  380   0.000-576460752303423488.000   0.000
    1   AR   Ar  381-18446744073709551616.000   0.0001073741824.000
    1   AR   Ar  382   0.000   0.000   0.000
    1   AR   Ar  383-18446744073709551616.000   0.000   0.000
    1   AR   Ar  384-18446744073709551616.000   0.000   0.000
    1   AR   Ar  385-18446744073709551616.000   0.000   0.000
    1   AR   Ar  386   0.000   0.000   0.000
    1   AR   Ar  387-18446744073709551616.000   0.000   0.000
    1   AR   Ar  388-18446744073709551616.000   0.000   0.000
    1   AR   Ar  389   0.000   0.000   0.000
    1   AR   Ar  390-18446744073709551616.000-576460752303423488.000   0.000
    1   AR   Ar  391-18446744073709551616.000   0.000-1073741824.000
    1   AR   Ar  392-18446744073709551616.000   0.000   0.000
    1   AR   Ar  393-18446744073709551616.000   0.000   0.000
    1   AR   Ar  394-18446744073709551616.000   0.000   0.000
    1   AR   Ar  395-18446744073709551616.000   0.000   0.000
    1   AR   Ar  396   0.000   0.000   0.000
    1   AR   Ar  397   0.000   0.000   0.000
    1   AR   Ar  398   0.000-576460752303423488.000   0.000
    1   AR   Ar  399-18446744073709551616.000   0.000   0.000
    1   AR   Ar  400   0.000   0.000   0.000
    1   AR   Ar  401   0.000   0.000   0.000
    1   AR   Ar  402-18446744073709551616.000   0.0001073741824.000
    1   AR   Ar  403-18446744073709551616.000   0.000   0.000
    1   AR   Ar  404-18446744073709551616.000   0.000   0.000
    1   AR   Ar  405   0.000   0.000   0.000
    1   AR   Ar  406-18446744073709551616.000   0.000   0.000
    1   AR   Ar  407   0.000   0.000268435456.000
    1   AR   Ar  408   0.000   0.000   0.000
    1   AR   Ar  409   0.000   0.000   0.000
    1   AR   Ar  410   0.000   0.000   0.000
    1   AR   Ar  411-18446744073709551616.000   0.000   0.000
    1   AR   Ar  412   0.000   0.000   0.000
    1   AR   Ar  4134611686018427387904.000-576460752303423488.000   0.000
    1   AR   Ar  414-18446744073709551616.000   0.000-1073741824.000
    1   AR   Ar  415-18446744073709551616.000   0.000   0.000
    1   AR   Ar  416   0.000   0.000   0.000
    1   AR   Ar  417   0.000   0.000   0.000
    1   AR   Ar  418   0.000   0.000   0.000
    1   AR   Ar  419-4611686018427387904.000   0.000   0.000
    1   AR   Ar  420   0.000   0.000   0.000
    1   AR   Ar  421   0.000   0.000   0.000
    1   AR   Ar  42218446744073709551616.000-576460752303423488.000   0.000
    1   AR   Ar  423-18446744073709551616.000   0.0001073741824.000
    1   AR   Ar  424-18446744073709551616.000   0.000-536870912.000
    1   AR   Ar  425-18446744073709551616.000   0.000   0.000
    1   AR   Ar  426-18446744073709551616.000   0.000   0.000
    1   AR   Ar  427-18446744073709551616.000   0.000   0.000
    1   AR   Ar  428-18446744073709551616.000   0.0001073741824.000
    1   AR   Ar  429   0.000   0.000   0.000
    1   AR   Ar  430   0.000   0.000-33554432.000
    1   AR   Ar  431   0.000   0.000   0.000
    1   AR   Ar  432-18446744073709551616.000   0.000-1073741824.000
    1   AR   Ar  433   0.000   0.000   0.000
    1   AR   Ar  434   0.000   0.000   0.000
    1   AR   Ar  435-18446744073709551616.000   0.000   0.000
    1   AR   Ar  436-18446744073709551616.000   0.0001073741824.000
    1   AR   Ar  43718446744073709551616.000-576460752303423488.000   0.000
    1   AR   Ar  438   0.000-288230376151711744.000-134217728.000
    1   AR   Ar  439   0.000   0.000   0.000
    1   AR   Ar  440-18446744073709551616.000   0.000   0.000
    1   AR   Ar  441   0.000   0.000   0.000
    1   AR   Ar  442   0.000   0.000-16777216.000
    1   AR   Ar  443-18446744073709551616.000   0.000-1073741824.000
    1   AR   Ar  444   0.000   0.000   0.000
    1   AR   Ar  445   0.000   0.0001073741824.000
    1   AR   Ar  446   0.000   0.000-134217728.000
    1   AR   Ar  447-18446744073709551616.000   0.000   0.000
    1   AR   Ar  448-18446744073709551616.000   0.000   0.000
    1   AR   Ar  449-18446744073709551616.000   0.000   0.000
    1   AR   Ar  450   0.000   0.0008388608.000
    1   AR   Ar  451   0.000   0.000   0.000
    1   AR   Ar  452-18446744073709551616.000   0.0001073741824.000
    1   AR   Ar  453-18446744073709551616.000   0.0001073741824.000
    1   AR   Ar  454-18446744073709551616.000   0.000-1073741824.000
    1   AR   Ar  455   0.000   0.000   0.000
    1   AR   Ar  456   0.000   0.000   0.000
    1   AR   Ar  457   0.000   0.000   0.000
    1   AR   Ar  458-18446744073709551616.000   0.000   0.000
    1   AR   Ar  459-18446744073709551616.000   0.000-1073741824.000
    1   AR   Ar  460-18446744073709551616.000   0.000   0.000
    1   AR   Ar  461   0.000576460752303423488.000   0.000
    1   AR   Ar  462   0.000   0.000   0.000
    1   AR   Ar  463   0.000   0.000   0.000
    1   AR   Ar  464-18446744073709551616.000   0.000-1073741824.000
    1   AR   Ar  465-18446744073709551616.000   0.000   0.000
    1   AR   Ar  466   0.000144115188075855872.000   0.000
    1   AR   Ar  467   0.00018014398509481984.000   0.000
    1   AR   Ar  468   0.000   0.000   0.000
    1   AR   Ar  469   0.000   0.000   0.000
    1   AR   Ar  470-18446744073709551616.000   0.000   0.000
    1   AR   Ar  471   0.000   0.000134217728.000
    1   AR   Ar  472   0.000   0.000   0.000
    1   AR   Ar  473   0.000   0.000   0.000
    1   AR   Ar  474   0.000-576460752303423488.000   0.000
    1   AR   Ar  475   0.000   0.000   0.000
    1   AR   Ar  476   0.000   0.000   0.000
    1   AR   Ar  477-18446744073709551616.000   0.000-1073741824.000
    1   AR   Ar  478-18446744073709551616.000   0.000   0.000
    1   AR   Ar  479-18446744073709551616.000   0.000   0.000
    1   AR   Ar  480-18446744073709551616.000   0.0001073741824.000
    1   AR   Ar  481-18446744073709551616.000   0.000   0.000
    1   AR   Ar  482   0.000   0.000   0.000
    1   AR   Ar  483   0.000   0.000   0.000
    1   AR   Ar  48418446744073709551616.000   0.000   0.000
    1   AR   Ar  485   0.000   0.000   0.000
    1   AR   Ar  486   0.000   0.000   0.000
    1   AR   Ar  487-18446744073709551616.000   0.000   0.000
    1   AR   Ar  488-18446744073709551616.000   0.000   0.000
    1   AR   Ar  489-18446744073709551616.000   0.000   0.000
    1   AR   Ar  490-4611686018427387904.000-576460752303423488.000   0.000
    1   AR   Ar  491-4611686018427387904.000   0.000   0.000
    1   AR   Ar  4921152921504606846976.000   0.000   0.000
    1   AR   Ar  493   0.000   0.000   0.000
    1   AR   Ar  494   0.000   0.000   0.000
    1   AR   Ar  495-18446744073709551616.000   0.000   0.000
    1   AR   Ar  496   0.000   0.000   0.000
    1   AR   Ar  497-18446744073709551616.000   0.000   0.000
    1   AR   Ar  498-18446744073709551616.000   0.000   0.000
    1   AR   Ar  499   0.000   0.000   0.000
    1   AR   Ar  500-4611686018427387904.000   0.000268435456.000
    1   AR   Ar  501-18446744073709551616.000   0.0001073741824.000
    1   AR   Ar  502-18446744073709551616.000   0.000   0.000
    1   AR   Ar  503   0.000   0.000   0.000
    1   AR   Ar  504-18446744073709551616.000   0.0001073741824.000
    1   AR   Ar  505   0.000   0.000268435456.000
    1   AR   Ar  506-18446744073709551616.000   0.000   0.000
    1   AR   Ar  507   0.000-288230376151711744.000   0.000
    1   AR   Ar  508   0.000   0.000   0.000
    1   AR   Ar  509-18446744073709551616.000   0.000-1073741824.000
    1   AR   Ar  510-18446744073709551616.000   0.000   0.000
    1   AR   Ar  511   0.000   0.000   0.000
    1   AR   Ar  512   0.000   0.000   0.000
    1   AR   Ar  513-18446744073709551616.000   0.000   0.000
    1   AR   Ar  514-4611686018427387904.000-576460752303423488.000   0.000
    1   AR   Ar  515   0.000   0.000   0.000
    1   AR   Ar  516-18446744073709551616.000   0.000   0.000
    1   AR   Ar  517   0.000   0.000   0.000
    1   AR   Ar  518-18446744073709551616.000   0.000   0.000
    1   AR   Ar  519   0.000-576460752303423488.000   0.000
    1   AR   Ar  520   0.000   0.000   0.000
    1   AR   Ar  521   0.000   0.000   0.000
    1   AR   Ar  522-18446744073709551616.000   0.000   0.000
    1   AR   Ar  523   0.000   0.000-268435456.000
    1   AR   Ar  524   0.000   0.000-536870912.000
    1   AR   Ar  5254611686018427387904.000   0.000   0.000
    1   AR   Ar  526   0.000   0.000   0.000
    1   AR   Ar  527-18446744073709551616.000   0.000   0.000
    1   AR   Ar  528-18446744073709551616.000   0.000   0.000
    1   AR   Ar  529-18446744073709551616.000   0.000   0.000
    1   AR   Ar  530-18446744073709551616.000   0.000-536870912.000
    1   AR   Ar  531   0.000   0.000   0.000
    1   AR   Ar  532   0.000-288230376151711744.000   0.000
    1   AR   Ar  533-18446744073709551616.000   0.000   0.000
    1   AR   Ar  534   0.000   0.000   0.000
    1   AR   Ar  535-18446744073709551616.000   0.000   0.000
    1   AR   Ar  536   0.000   0.000   0.000
    1   AR   Ar  537   0.000-576460752303423488.000   0.000
    1   AR   Ar  538-18446744073709551616.000   0.000   0.000
    1   AR   Ar  539   0.000   0.000-536870912.000
    1   AR   Ar  540-18446744073709551616.000   0.000   0.000
    1   AR   Ar  541-18446744073709551616.000   0.0001073741824.000
    1   AR   Ar  542-18446744073709551616.000   0.000   0.000
    1   AR   Ar  543   0.000   0.000   0.000
    1   AR   Ar  5442305843009213693952.000-288230376151711744.000   0.000
    1   AR   Ar  545-18446744073709551616.000   0.000   0.000
    1   AR   Ar  546-18446744073709551616.000   0.000   0.000
    1   AR   Ar  547   0.00018014398509481984.000   0.000
    1   AR   Ar  548-4611686018427387904.000-576460752303423488.000   0.000
    1   AR   Ar  549   0.000   0.000   0.000
    1   AR   Ar  550-18446744073709551616.000   0.000   0.000
    1   AR   Ar  551   0.000   0.000   0.000
    1   AR   Ar  5524611686018427387904.000   0.000   0.000
    1   AR   Ar  553   0.000   0.000   0.000
    1   AR   Ar  554-18446744073709551616.000   0.000   0.000
    1   AR   Ar  555   0.000576460752303423488.000   0.000
    1   AR   Ar  556   0.000   0.000   0.000
    1   AR   Ar  557-18446744073709551616.000   0.000   0.000
    1   AR   Ar  558   0.000   0.000   0.000
    1   AR   Ar  559-2305843009213693952.000   0.000   0.000
    1   AR   Ar  560-18446744073709551616.000   0.000   0.000
    1   AR   Ar  561-18446744073709551616.000   0.000-1073741824.000
    1   AR   Ar  562   0.000   0.000   0.000
    1   AR   Ar  563   0.000288230376151711744.000-134217728.000
    1   AR   Ar  564-18446744073709551616.000   0.000   0.000
    1   AR   Ar  565-18446744073709551616.000   0.000   0.000
    1   AR   Ar  566-18446744073709551616.000   0.000   0.000
    1   AR   Ar  567   0.000-288230376151711744.000   0.000
    1   AR   Ar  568-18446744073709551616.000   0.000-1073741824.000
    1   AR   Ar  569   0.000   0.000   0.000
    1   AR   Ar  570288230376151711744.000   0.000   0.000
    1   AR   Ar  5712305843009213693952.000   0.000-134217728.000
    1   AR   Ar  572-18446744073709551616.000   0.000-1073741824.000
    1   AR   Ar  573-18446744073709551616.000   0.000   0.000
    1   AR   Ar  574-18446744073709551616.000   0.000   0.000
    1   AR   Ar  575   0.000   0.000   0.000
    1   AR   Ar  576-18446744073709551616.000   0.000-1073741824.000
    1   AR   Ar  577   0.000   0.000   0.000
    1   AR   Ar  578-18446744073709551616.000   0.0001073741824.000
    1   AR   Ar  579-18446744073709551616.000   0.000   0.000
    1   AR   Ar  580-18446744073709551616.000   0.0001073741824.000
    1   AR   Ar  581   0.000   0.000   0.000
    1   AR   Ar  582-2305843009213693952.000   0.000   0.000
    1   AR   Ar  583-18446744073709551616.000   0.000-1073741824.000
    1   AR   Ar  584-18446744073709551616.000   0.000   0.000
    1   AR   Ar  585-18446744073709551616.000   0.000   0.000
    1   AR   Ar  586-576460752303423488.000   0.000-33554432.000
    1   AR   Ar  587-18446744073709551616.000   0.000   0.000
    1   AR   Ar  588-18446744073709551616.000   0.000   0.000
    1   AR   Ar  58972057594037927936.000   0.000   0.000
    1   AR   Ar  590-18446744073709551616.000   0.000   0.000
    1   AR   Ar  591   0.000   0.000-536870912.000
    1   AR   Ar  592-18446744073709551616.000   0.000   0.000
    1   AR   Ar  593   0.000   0.000   0.000
    1   AR   Ar  594   0.000-576460752303423488.000   0.000
    1   AR   Ar  595-18446744073709551616.000   0.000   0.000
    1   AR   Ar  596   0.000   0.000   0.000
    1   AR   Ar  597   0.000   0.000   0.000
    1   AR   Ar  598   0.000   0.000   0.000
    1   AR   Ar  599   0.000   0.000   0.000
    1   AR   Ar  600   0.000   0.000-536870912.000
    1   AR   Ar  601   0.000   0.000   0.000
    1   AR   Ar  602-18446744073709551616.000   0.000-1073741824.000
    1   AR   Ar  603   0.000-576460752303423488.000   0.000
    1   AR   Ar  604   0.000   0.000   0.000
    1   AR   Ar  6052305843009213693952.000   0.000   0.000
    1   AR   Ar  606576460752303423488.00036028797018963968.000-33554432.000
    1   AR   Ar  607-18446744073709551616.000   0.000   0.000
    1   AR   Ar  60818446744073709551616.000   0.000-536870912.000
    1   AR   Ar  609   0.000   0.000   0.000
    1   AR   Ar  610-18446744073709551616.000   0.000   0.000
    1   AR   Ar  611-18446744073709551616.000   0.000   0.000
    1   AR   Ar  612-18446744073709551616.000   0.0001073741824.000
    1   AR   Ar  613   0.000-576460752303423488.000   0.000
    1   AR   Ar  614-18446744073709551616.000   0.000   0.000
    1   AR   Ar  615-18446744073709551616.000   0.000   0.000
    1   AR   Ar  616-18446744073709551616.000   0.000   0.000
    1   AR   Ar  617-18446744073709551616.000   0.000   0.000
    1   AR   Ar  618-18446744073709551616.000   0.000   0.000
    1   AR   Ar  619-18446744073709551616.000   0.000   0.000
    1   AR   Ar  620   0.000   0.000   0.000
    1   AR   Ar  621   0.000   0.000   0.000
    1   AR   Ar  622-18446744073709551616.000   0.000   0.000
    1   AR   Ar  623   0.000   0.000   0.000
    1   AR   Ar  624   0.000   0.000   0.000
    1   AR   Ar  625   0.000   0.000-33554432.000
    1   AR   Ar  626   0.000   0.000   0.000
    1   AR   Ar  627   0.000   0.000   0.000
    1   AR   Ar  628-18446744073709551616.000   0.0001073741824.000
    1   AR   Ar  629   0.000   0.000   0.000
    1   AR   Ar  630-18446744073709551616.000   0.000   0.000
    1   AR   Ar  631-18446744073709551616.000   0.000   0.000
    1   AR   Ar  632-18446744073709551616.000   0.0001073741824.000
    1   AR   Ar  633   0.000   0.000-134217728.000
    1   AR   Ar  634   0.000   0.000   0.000
    1   AR   Ar  635   0.000   0.000   0.000
    1   AR   Ar  636-18446744073709551616.000   0.000   0.000
    1   AR   Ar  637-18446744073709551616.000   0.0001073741824.000
    1   AR   Ar  638-18446744073709551616.000   0.000   0.000
    1   AR   Ar  639   0.000   0.000-134217728.000
    1   AR   Ar  64018446744073709551616.000   0.000   0.000
    1   AR   Ar  641-18446744073709551616.000   0.000-1073741824.000
    1   AR   Ar  642-18446744073709551616.000   0.000   0.000
    1   AR   Ar  643   0.000   0.000   0.000
    1   AR   Ar  644   0.000   0.000   0.000
    1   AR   Ar  645-18446744073709551616.000   0.000   0.000
    1   AR   Ar  646   0.000   0.000   0.000
    1   AR   Ar  647   0.000-576460752303423488.000   0.000
    1   AR   Ar  648   0.000   0.000   0.000
    1   AR   Ar  649-18446744073709551616.000   0.000-1073741824.000
    1   AR   Ar  650-4611686018427387904.000   0.000268435456.000
    1   AR   Ar  651-18446744073709551616.000   0.000   0.000
    1   AR   Ar  652   0.000   0.000   0.000
    1   AR   Ar  653-18446744073709551616.000   0.000   0.000
    1   AR   Ar  654-18446744073709551616.000   0.000   0.000
    1   AR   Ar  655-18446744073709551616.000   0.000   0.000
    1   AR   Ar  656-18446744073709551616.000   0.000   0.000
    1   AR   Ar  657   0.000   0.000   0.000
    1   AR   Ar  658-18446744073709551616.000   0.000   0.000
    1   AR   Ar  659-18446744073709551616.000   0.000   0.000
    1   AR   Ar  660-18446744073709551616.000   0.000   0.000
    1   AR   Ar  661-18446744073709551616.000-576460752303423488.000   0.000
    1   AR   Ar  662   0.000   0.000   0.000
    1   AR   Ar  663-18446744073709551616.000   0.0001073741824.000
    1   AR   Ar  66418446744073709551616.000   0.000   0.000
    1   AR   Ar  665-18446744073709551616.000   0.0001073741824.000
    1   AR   Ar  666   0.000   0.000   0.000
    1   AR   Ar  667-18446744073709551616.000   0.000   0.000
    1   AR   Ar  668-18446744073709551616.000-576460752303423488.000   0.000
    1   AR   Ar  669   0.000   0.000   0.000
    1   AR   Ar  670-18446744073709551616.000   0.000   0.000
    1   AR   Ar  671-18446744073709551616.000   0.000   0.000
    1   AR   Ar  672   0.000   0.000   0.000
    1   AR   Ar  673   0.000   0.000   0.000
    1   AR   Ar  674-18446744073709551616.000   0.000536870912.000
    1   AR   Ar  675   0.000-576460752303423488.000   0.000
    1   AR   Ar  676-18446744073709551616.000   0.000   0.000
    1   AR   Ar  677   0.000-576460752303423488.000   0.000
    1   AR   Ar  678-18446744073709551616.000   0.000   0.000
    1   AR   Ar  679-18446744073709551616.000   0.000   0.000
    1   AR   Ar  68018446744073709551616.000   0.000   0.000
    1   AR   Ar  68118446744073709551616.000   0.000   0.000
    1   AR   Ar  682   0.000   0.000   0.000
    1   AR   Ar  683-18446744073709551616.000   0.000-1073741824.000
    1   AR   Ar  684-18446744073709551616.000   0.0001073741824.000
    1   AR   Ar  685-1152921504606846976.000   0.000   0.000
    1   AR   Ar  686-18446744073709551616.000   0.0001073741824.000
    1   AR   Ar  687   0.000   0.00033554432.000
    1   AR   Ar  688   0.000-18014398509481984.000   0.000
    1   AR   Ar  689   0.000   0.000-268435456.000
    1   AR   Ar  690-18446744073709551616.000   0.000   0.000
    1   AR   Ar  691-18446744073709551616.000   0.000-1073741824.000
    1   AR   Ar  692   0.000   0.000   0.000
    1   AR   Ar  69318446744073709551616.000   0.000   0.000
    1   AR   Ar  694-18446744073709551616.000   0.000   0.000
    1   AR   Ar  695   0.000   0.000   0.000
    1   AR   Ar  696-18446744073709551616.000   0.000   0.000
    1   AR   Ar  697   0.000   0.000   0.000
    1   AR   Ar  698-4611686018427387904.000   0.000   0.000
    1   AR   Ar  699-18446744073709551616.000   0.0001073741824.000
    1   AR   Ar  700   0.000   0.000   0.000
    1   AR   Ar  701-18446744073709551616.000   0.000   0.000
    1   AR   Ar  702-18446744073709551616.000   0.000   0.000
    1   AR   Ar  703-18446744073709551616.000   0.000   0.000
    1   AR   Ar  704   0.000   0.000   0.000
    1   AR   Ar  705   0.000   0.00033554432.000
    1   AR   Ar  706   0.000-288230376151711744.000134217728.000
    1   AR   Ar  707   0.000   0.000   0.000
    1   AR   Ar  708   0.000   0.000   0.000
    1   AR   Ar  709   0.000   0.00067108864.000
    1   AR   Ar  710   0.000   0.000   0.000
    1   AR   Ar  711   0.000   0.000   0.000
    1   AR   Ar  712-18446744073709551616.000   0.000   0.000
    1   AR   Ar  713-18446744073709551616.000   0.000   0.000
    1   AR   Ar  714-18446744073709551616.000   0.000   0.000
    1   AR   Ar  715-18446744073709551616.000   0.0001073741824.000
    1   AR   Ar  716   0.000   0.000   0.000
    1   AR   Ar  717   0.000   0.000   0.000
    1   AR   Ar  718   0.000   0.000   0.000
    1   AR   Ar  719   0.000   0.000   0.000
    1   AR   Ar  720-18446744073709551616.000   0.000   0.000
    1   AR   Ar  721-18446744073709551616.000   0.000   0.000
    1   AR   Ar  722-18446744073709551616.000   0.000   0.000
    1   AR   Ar  72318446744073709551616.000   0.000   0.000
    1   AR   Ar  724-18446744073709551616.000   0.000-1073741824.000
    1   AR   Ar  72518446744073709551616.000   0.000   0.000
    1   AR   Ar  726   0.000-144115188075855872.000   0.000
    1   AR   Ar  727   0.000   0.000   0.000
    1   AR   Ar  728288230376151711744.000   0.000   0.000
    1   AR   Ar  729-18446744073709551616.000   0.000   0.000
    1   AR   Ar  730-18446744073709551616.000   0.000   0.000
    1   AR   Ar  731-18446744073709551616.000   0.000-1073741824.000
    1   AR   Ar  732   0.000   0.000   0.000
    1   AR   Ar  733-18446744073709551616.000-576460752303423488.000268435456.000
    1   AR   Ar  734   0.000   0.000   0.000
    1   AR   Ar  735   0.000   0.000-33554432.000
    1   AR   Ar  736   0.000   0.000   0.000
    1   AR   Ar  737   0.000   0.000   0.000
    1   AR   Ar  738-18446744073709551616.000   0.000   0.000
    1   AR   Ar  739-4611686018427387904.000   0.000   0.000
    1   AR   Ar  740-18446744073709551616.000   0.000   0.000
    1   AR   Ar  741-18446744073709551616.000   0.000   0.000
    1   AR   Ar  742-18446744073709551616.000   0.0001073741824.000
    1   AR   Ar  743-18446744073709551616.000   0.000   0.000
    1   AR   Ar  744-18446744073709551616.000   0.000   0.000
    1   AR   Ar  745-18446744073709551616.000   0.000-1073741824.000
    1   AR   Ar  746-18446744073709551616.000   0.000   0.000
    1   AR   Ar  747   0.000   0.000   0.000
    1   AR   Ar  748-18446744073709551616.000   0.000-1073741824.000
    1   AR   Ar  749-18446744073709551616.000   0.000-1073741824.000
    1   AR   Ar  750-18446744073709551616.000   0.000   0.000
    1   AR   Ar  7512305843009213693952.000   0.000   0.000
    1   AR   Ar  752   0.000   0.000-134217728.000
    1   AR   Ar  7534611686018427387904.000-576460752303423488.000   0.000
    1   AR   Ar  754   0.000   0.000   0.000
    1   AR   Ar  755   0.000   0.000   0.000
    1   AR   Ar  756-18446744073709551616.000   0.000   0.000
    1   AR   Ar  75718446744073709551616.000576460752303423488.000   0.000
    1   AR   Ar  758-18446744073709551616.000   0.000   0.000
    1   AR   Ar  75918446744073709551616.000   0.000   0.000
    1   AR   Ar  760-2305843009213693952.000288230376151711744.000-134217728.000
    1   AR   Ar  761   0.000   0.000   0.000
    1   AR   Ar  762-18446744073709551616.000   0.000   0.000
    1   AR   Ar  763-18446744073709551616.000   0.0001073741824.000
    1   AR   Ar  764-18446744073709551616.000   0.000   0.000
    1   AR   Ar  765   0.000   0.000268435456.000
    1   AR   Ar  766   0.000   0.00033554432.000
    1   AR   Ar  767-18446744073709551616.000   0.000-1073741824.000
    1   AR   Ar  768   0.000576460752303423488.000   0.000
    1   AR   Ar  769-18446744073709551616.000   0.000   0.000
    1   AR   Ar  770   0.000   0.000-134217728.000
    1   AR   Ar  771   0.000   0.000   0.000
    1   AR   Ar  772   0.000   0.000   0.000
    1   AR   Ar  7731152921504606846976.000   0.000   0.000
    1   AR   Ar  774288230376151711744.000   0.000   0.000
    1   AR   Ar  775-18446744073709551616.000   0.000   0.000
    1   AR   Ar  776   0.000   0.000   0.000
    1   AR   Ar  777-18446744073709551616.000   0.0001073741824.000
    1   AR   Ar  778-18446744073709551616.000   0.0001073741824.000
    1   AR   Ar  779-18446744073709551616.000   0.000-1073741824.000
    1   AR   Ar  780-18446744073709551616.000   0.000   0.000
    1   AR   Ar  781-18446744073709551616.000   0.000   0.000
    1   AR   Ar  782   0.000   0.000   0.000
    1   AR   Ar  783   0.000   0.000   0.000
    1   AR   Ar  784   0.000   0.000-268435456.000
    1   AR   Ar  785   0.000-288230376151711744.000   0.000
    1   AR   Ar  786-18446744073709551616.000   0.0001073741824.000
    1   AR   Ar  787-18446744073709551616.000   0.000   0.000
    1   AR   Ar  788-18446744073709551616.000   0.000   0.000
    1   AR   Ar  789-18446744073709551616.000   0.000   0.000
    1   AR   Ar  790   0.000   0.000   0.000
    1   AR   Ar  791-18446744073709551616.000   0.000   0.000
    1   AR   Ar  7924611686018427387904.000   0.000   0.000
    1   AR   Ar  793-18446744073709551616.000   0.000   0.000
    1   AR   Ar  7944611686018427387904.000   0.000   0.000
    1   AR   Ar  795   0.000   0.000   0.000
    1   AR   Ar  796-18446744073709551616.000   0.000-536870912.000
    1   AR   Ar  797   0.000   0.000   0.000
    1   AR   Ar  798-18446744073709551616.000   0.000   0.000
    1   AR   Ar  799-18446744073709551616.000   0.000   0.000
    1   AR   Ar  800-18446744073709551616.000   0.000   0.000
    1   AR   Ar  801-18446744073709551616.000   0.000   0.000
    1   AR   Ar  802-18446744073709551616.000   0.000   0.000
    1   AR   Ar  803   0.000   0.000   0.000
    1   AR   Ar  804-18446744073709551616.000   0.000-1073741824.000
    1   AR   Ar  805-18446744073709551616.000576460752303423488.000   0.000
    1   AR   Ar  806   0.000   0.000   0.000
    1   AR   Ar  807-18446744073709551616.000   0.000   0.000
    1   AR   Ar  80818446744073709551616.000   0.000   0.000
    1   AR   Ar  809-18446744073709551616.000   0.000   0.000
    1   AR   Ar  810   0.000-18014398509481984.000   0.000
    1   AR   Ar  811-18446744073709551616.000   0.0001073741824.000
    1   AR   Ar  812-18446744073709551616.000   0.000   0.000
    1   AR   Ar  813-18446744073709551616.000   0.000   0.000
    1   AR   Ar  814-18446744073709551616.000   0.0001073741824.000
    1   AR   Ar  815-18446744073709551616.000   0.000-1073741824.000
    1   AR   Ar  816-18446744073709551616.000   0.000   0.000
    1   AR   Ar  817   0.000   0.000   0.000
    1   AR   Ar  818-18446744073709551616.000   0.000   0.000
    1   AR   Ar  819   0.000   0.000   0.000
    1   AR   Ar  820   0.000   0.000   0.000
    1   AR   Ar  821   0.000   0.000536870912.000
    1   AR   Ar  82218446744073709551616.000   0.000   0.000
    1   AR   Ar  823-18446744073709551616.000   0.0001073741824.000
    1   AR   Ar  824   0.000   0.000   0.000
    1   AR   Ar  825-18446744073709551616.000   0.000   0.000
    1   AR   Ar  826-18446744073709551616.000-576460752303423488.000268435456.000
    1   AR   Ar  827-18446744073709551616.000   0.000   0.000
    1   AR   Ar  828-18446744073709551616.000   0.000   0.000
    1   AR   Ar  829-18446744073709551616.000   0.000   0.000
    1   AR   Ar  830-18446744073709551616.000   0.000   0.000
    1   AR   Ar  831   0.000   0.000   0.000
    1   AR   Ar  832-18446744073709551616.000   0.000   0.000
    1   AR   Ar  833-18446744073709551616.000   0.000   0.000
    1   AR   Ar  834-18446744073709551616.000   0.000   0.000
    1   AR   Ar  835-18446744073709551616.000   0.000   0.000
    1   AR   Ar  836   0.000   0.000-268435456.000
    1   AR   Ar  837-18446744073709551616.000   0.000   0.000
    1   AR   Ar  838-4611686018427387904.000   0.000   0.000
    1   AR   Ar  839   0.000   0.000-268435456.000
    1   AR   Ar  840   0.000   0.000-134217728.000
    1   AR   Ar  841-18446744073709551616.000   0.000   0.000
    1   AR   Ar  842-18446744073709551616.000   0.000-1073741824.000
    1   AR   Ar  843   0.000   0.000   0.000
    1   AR   Ar  844   0.000   0.000-536870912.000
    1   AR   Ar  845-18446744073709551616.000   0.000   0.000
    1   AR   Ar  846   0.000-576460752303423488.000   0.000
    1   AR   Ar  847   0.000   0.000-536870912.000
    1   AR   Ar  848-18446744073709551616.000   0.000   0.000
    1   AR   Ar  849-18446744073709551616.000   0.000   0.000
    1   AR   Ar  850-18446744073709551616.000   0.000   0.000
    1   AR   Ar  851-18446744073709551616.000   0.000   0.000
    1   AR   Ar  852-18446744073709551616.000   0.000   0.000
    1   AR   Ar  853-18446744073709551616.000   0.000-1073741824.000
    1   AR   Ar  854-18446744073709551616.000   0.000   0.000
    1   AR   Ar  855288230376151711744.000   0.000   0.000
    1   AR   Ar  856-18446744073709551616.000   0.000   0.000
    1   AR   Ar  857-576460752303423488.000   0.000   0.000
    1   AR   Ar  858-18446744073709551616.000   0.000   0.000
    1   AR   Ar  859   0.000   0.000   0.000
    1   AR   Ar  860   0.000288230376151711744.000134217728.000
    1   AR   Ar  861   0.000   0.000   0.000
    1   AR   Ar  8622305843009213693952.000   0.000-134217728.000
    1   AR   Ar  863-18446744073709551616.000   0.000   0.000
    1   AR   Ar  864-4611686018427387904.000   0.000   0.000
  10.68000  10.68000  10.68000
