Argon-bulk
  864
    1   AR   Ar    1   0.391   7.993   0.287
    1   AR   Ar    2   1.952   1.276   9.806
    1   AR   Ar    3   2.638  10.167  10.098
    1   AR   Ar    4   1.366   2.088   1.235
    1   AR   Ar    5   0.559   8.339   1.336
    1   AR   Ar    6   0.101   9.855   0.952
    1   AR   Ar    7  10.666   0.451   3.717
    1   AR   Ar    8  10.081  10.261   1.560
    1   AR   Ar    9  10.148   9.038   3.755
    1   AR   Ar   10  10.058   0.568   4.849
    1   AR   Ar   11   0.338   7.903   4.283
    1   AR   Ar   12   2.282   0.644   3.024
    1   AR   Ar   13   1.495  10.152   6.335
    1   AR   Ar   14   9.664   1.539   5.923
    1   AR   Ar   15   1.570   0.560   6.611
    1   AR   Ar   16   2.448  10.514   3.935
    1   AR   Ar   17  10.006   8.206   7.031
    1   AR   Ar   18   0.064  10.074   7.753
    1   AR   Ar   19   1.021   0.884  10.035
    1   AR   Ar   20   0.385   9.151   8.339
    1   AR   Ar   21   0.331   0.316   1.978
    1   AR   Ar   22   9.746   0.957   9.573
    1   AR   Ar   23   9.295  10.018   8.131
    1   AR   Ar   24   2.211   8.429   9.553
    1   AR   Ar   25   0.220   1.036   1.136
    1   AR   Ar   26   9.489   4.397  10.153
    1   AR   Ar   27   1.118   1.791  10.551
    1   AR   Ar   28   1.938   2.325  10.062
    1   AR   Ar   29  10.563   1.386   3.362
    1   AR   Ar   30   9.326   2.634   4.551
    1   AR   Ar   31   2.537   2.039   2.481
    1   AR   Ar   32   8.802   0.185   0.644
    1   AR   Ar   33   0.967   0.708   4.667
    1   AR   Ar   34   0.735   4.253   4.824
    1   AR   Ar   35  10.417   2.499   4.716
    1   AR   Ar   36   0.131   1.448   2.238
    1   AR   Ar   37   0.320   2.777   3.722
    1   AR   Ar   38   8.425   2.363   3.931
    1   AR   Ar   39   1.379   3.132   4.522
    1   AR   Ar   40   1.313   1.603   6.447
    1   AR   Ar   41   2.188   1.798   7.466
    1   AR   Ar   42   9.320   1.378   8.523
    1   AR   Ar   43   8.798   2.096   7.768
    1   AR   Ar   44   0.257   2.374   6.190
    1   AR   Ar   45   0.015   1.528   9.394
    1   AR   Ar   46   9.810   2.783   0.975
    1   AR   Ar   47   3.023   1.114   7.378
    1   AR   Ar   48   9.775   3.408  10.323
    1   AR   Ar   49   9.908   4.115   1.561
    1   AR   Ar   50   0.440   2.193   2.882
    1   AR   Ar   51   2.336   3.079   0.516
    1   AR   Ar   52   1.705   2.929   1.877
    1   AR   Ar   53   0.514   3.558   3.104
    1   AR   Ar   54   9.886   6.265   3.937
    1   AR   Ar   55   1.749   1.711   3.393
    1   AR   Ar   56   2.161   5.246   2.926
    1   AR   Ar   57  10.442   5.122   5.216
    1   AR   Ar   58   7.738   5.097   4.550
    1   AR   Ar   59   0.815   5.294   4.483
    1   AR   Ar   60   0.513   6.036   5.420
    1   AR   Ar   61   1.673   4.613   6.087
    1   AR   Ar   62   9.133   4.383   6.379
    1   AR   Ar   63   2.460   3.871   8.878
    1   AR   Ar   64   0.313   3.280   6.682
    1   AR   Ar   65  10.315   3.230   7.970
    1   AR   Ar   66   9.876   2.064   6.856
    1   AR   Ar   67   1.584   4.534   9.075
    1   AR   Ar   68   0.588   3.341   7.576
    1   AR   Ar   69   2.276   1.499   0.182
    1   AR   Ar   70   1.094   4.832   8.205
    1   AR   Ar   71   0.094   5.473   9.574
    1   AR   Ar   72   0.293   6.519   9.268
    1   AR   Ar   73   0.850   5.607   0.285
    1   AR   Ar   74   9.366   3.062   2.188
    1   AR   Ar   75   0.378   4.500   0.665
    1   AR   Ar   76   0.528   4.692   3.437
    1   AR   Ar   77   8.678   3.821   4.944
    1   AR   Ar   78   0.904   6.872   2.838
    1   AR   Ar   79   0.955   6.998   5.609
    1   AR   Ar   80   9.811   5.905   5.258
    1   AR   Ar   81   0.113   4.488   2.328
    1   AR   Ar   82   0.071   6.982   7.920
    1   AR   Ar   83   1.720   6.289   3.068
    1   AR   Ar   84   0.634   3.983   5.980
    1   AR   Ar   85   9.766   4.893   7.073
    1   AR   Ar   86   0.089   7.275   6.576
    1   AR   Ar   87   0.829   5.729   8.800
    1   AR   Ar   88  10.616   5.517   8.238
    1   AR   Ar   89   8.546   8.223   8.075
    1   AR   Ar   90   0.930   6.780   8.358
    1   AR   Ar   91   0.698   2.621   8.745
    1   AR   Ar   92   1.742   7.307   0.486
    1   AR   Ar   93   9.548   3.052   9.236
    1   AR   Ar   94   0.740   6.764   0.348
    1   AR   Ar   95   8.799   3.809   1.111
    1   AR   Ar   96   0.102   1.199  10.464
    1   AR   Ar   97   9.349   5.438   7.947
    1   AR   Ar   98   9.903   8.056   2.019
    1   AR   Ar   99   9.873   4.218   0.444
    1   AR   Ar  100  10.272   7.198   1.400
    1   AR   Ar  101   9.788   5.652   2.406
    1   AR   Ar  102   1.159   8.238   2.211
    1   AR   Ar  103   0.965   5.566   3.172
    1   AR   Ar  104   0.849   7.318   1.219
    1   AR   Ar  105  10.355   8.765   4.736
    1   AR   Ar  106  10.565   5.331   4.033
    1   AR   Ar  107   2.518   7.214   2.939
    1   AR   Ar  108   2.950   3.651   5.676
    1   AR   Ar  109   9.325   6.885   5.038
    1   AR   Ar  110   2.008   8.083   6.966
    1   AR   Ar  111  10.494   5.591   6.222
    1   AR   Ar  112   2.180   4.638   8.193
    1   AR   Ar  113  10.247   6.468   7.029
    1   AR   Ar  114   8.761   8.251   9.549
    1   AR   Ar  115   1.516   8.569   0.993
    1   AR   Ar  116  10.164   8.133  10.610
    1   AR   Ar  117   8.909   5.927   8.838
    1   AR   Ar  118   0.020   6.424  10.292
    1   AR   Ar  119   0.240   7.453  10.112
    1   AR   Ar  120   9.851   6.398   8.135
    1   AR   Ar  121   1.190   7.430   9.129
    1   AR   Ar  122  10.293   0.149   9.590
    1   AR   Ar  123   1.503   6.884   1.960
    1   AR   Ar  124  10.467   8.940   1.554
    1   AR   Ar  125   9.025   7.382   2.756
    1   AR   Ar  126  10.323  10.223   3.183
    1   AR   Ar  127   2.743   8.266   0.968
    1   AR   Ar  128   9.030   6.434   2.046
    1   AR   Ar  129   1.568   8.675   4.454
    1   AR   Ar  130   3.180   7.265   3.691
    1   AR   Ar  131   1.905   9.588   3.853
    1   AR   Ar  132   1.671   9.286   1.946
    1   AR   Ar  133   8.444   7.812   4.887
    1   AR   Ar  134   1.228   9.099   5.800
    1   AR   Ar  135   1.225   7.046   3.791
    1   AR   Ar  136   1.191  10.437   4.094
    1   AR   Ar  137   9.555   8.940   7.727
    1   AR   Ar  138   0.614   8.837  10.407
    1   AR   Ar  139   7.880   9.209   7.220
    1   AR   Ar  140   1.668   0.147   7.848
    1   AR   Ar  141  10.338   9.092   0.495
    1   AR   Ar  142   2.025   9.861   8.254
    1   AR   Ar  143   9.975   8.170   0.951
    1   AR   Ar  144  10.050   2.252  10.203
    1   AR   Ar  145   4.545  10.323   9.151
    1   AR   Ar  146   1.989   0.490   2.044
    1   AR   Ar  147   1.567   9.188  10.126
    1   AR   Ar  148   2.900   1.269   9.403
    1   AR   Ar  149   2.457   9.883   1.627
    1   AR   Ar  150   3.509   0.801   0.936
    1   AR   Ar  151   1.498  10.366   3.146
    1   AR   Ar  152   6.130  10.154   0.191
    1   AR   Ar  153   2.230   8.629   5.786
    1   AR   Ar  154   0.123   1.395   5.658
    1   AR   Ar  155   3.622  10.019   3.452
    1   AR   Ar  156   2.995   0.958   2.235
    1   AR   Ar  157   0.843   0.957   3.521
    1   AR   Ar  158   2.084   1.285   5.170
    1   AR   Ar  159   4.920  10.254   5.086
    1   AR   Ar  160   3.574  10.218   6.563
    1   AR   Ar  161   1.241   1.255   8.426
    1   AR   Ar  162   1.365   9.796   9.028
    1   AR   Ar  163   4.137   0.287   7.140
    1   AR   Ar  164   1.821   3.892   6.819
    1   AR   Ar  165   3.074   7.963   9.986
    1   AR   Ar  166   0.860   0.384   0.776
    1   AR   Ar  167   1.175   2.396   7.822
    1   AR   Ar  168   3.628   0.620   8.042
    1   AR   Ar  169   4.594  10.119   0.309
    1   AR   Ar  170   0.378   2.422   1.354
    1   AR   Ar  171   1.208   9.874   1.201
    1   AR   Ar  172   0.792   3.818   1.545
    1   AR   Ar  173   2.502   1.619   1.433
    1   AR   Ar  174   1.499   2.764   2.998
    1   AR   Ar  175   2.629   2.764   3.725
    1   AR   Ar  176   2.545   0.244   0.844
    1   AR   Ar  177   0.155   1.461   4.518
    1   AR   Ar  178   9.779   1.970   2.837
    1   AR   Ar  179   1.136   1.949   5.396
    1   AR   Ar  180   2.097   2.148   4.494
    1   AR   Ar  181   3.575   0.440   3.467
    1   AR   Ar  182   2.062   3.159   7.712
    1   AR   Ar  183   2.748   0.262   6.802
    1   AR   Ar  184   2.895   5.263   5.311
    1   AR   Ar  185   3.786   0.483   9.431
    1   AR   Ar  186   1.840   5.459   8.627
    1   AR   Ar  187   2.742  10.599   8.132
    1   AR   Ar  188   1.321   4.262  10.013
    1   AR   Ar  189   1.725   0.406   0.037
    1   AR   Ar  190   2.048   1.979   8.909
    1   AR   Ar  191   3.778   1.483  10.095
    1   AR   Ar  192   1.343   2.917   6.901
    1   AR   Ar  193  10.365   2.581   8.948
    1   AR   Ar  194   1.346   5.774   1.744
    1   AR   Ar  195   1.375   3.838   0.227
    1   AR   Ar  196   2.775   5.370  10.095
    1   AR   Ar  197   1.394   1.861   2.400
    1   AR   Ar  198   2.604   4.149   3.126
    1   AR   Ar  199   3.942   4.745   3.277
    1   AR   Ar  200   1.737   4.360   1.852
    1   AR   Ar  201   1.131   1.788   4.403
    1   AR   Ar  202   9.681   3.000   6.746
    1   AR   Ar  203   2.484   3.197   4.677
    1   AR   Ar  204   2.539   4.291   4.929
    1   AR   Ar  205   0.780   4.544   6.962
    1   AR   Ar  206   1.513   5.996   5.490
    1   AR   Ar  207   4.045   3.782   7.457
    1   AR   Ar  208   1.101   8.617   7.160
    1   AR   Ar  209   2.851   6.203   9.332
    1   AR   Ar  210   0.340   3.559  10.459
    1   AR   Ar  211   1.209   3.256   9.506
    1   AR   Ar  212   5.439   5.083   6.755
    1   AR   Ar  213   3.902   5.924  10.369
    1   AR   Ar  214   0.346   6.146   1.058
    1   AR   Ar  215   1.605  10.359   9.840
    1   AR   Ar  216   3.226   7.148   8.906
    1   AR   Ar  217   2.600   6.280   1.025
    1   AR   Ar  218   1.267   6.927  10.152
    1   AR   Ar  219   1.723   5.314   0.957
    1   AR   Ar  220   4.070   5.792   8.339
    1   AR   Ar  221   2.465   3.115   2.647
    1   AR   Ar  222   3.377   7.455   2.674
    1   AR   Ar  223   1.311   1.115   1.531
    1   AR   Ar  224   5.423   6.938   3.492
    1   AR   Ar  225   4.298   7.327   3.951
    1   AR   Ar  226   1.660   3.865   5.351
    1   AR   Ar  227   1.905   5.136   5.042
    1   AR   Ar  228   2.884   6.252   5.016
    1   AR   Ar  229   1.728   4.991   3.804
    1   AR   Ar  230   0.214   8.253   7.653
    1   AR   Ar  231   2.845   4.712   6.195
    1   AR   Ar  232   3.531   6.308   7.235
    1   AR   Ar  233   2.522   7.730   5.985
    1   AR   Ar  234   1.452   8.029  10.272
    1   AR   Ar  235   2.337   6.037   7.759
    1   AR   Ar  236   1.479   9.021   8.189
    1   AR   Ar  237   2.105   7.266   9.639
    1   AR   Ar  238  10.212   7.194   0.331
    1   AR   Ar  239   3.900   5.086   0.429
    1   AR   Ar  240   2.287   4.110   9.889
    1   AR   Ar  241   1.536   6.451   0.920
    1   AR   Ar  242   2.389   5.489   1.756
    1   AR   Ar  243   4.840   5.168  10.329
    1   AR   Ar  244   4.064   6.173   0.741
    1   AR   Ar  245   2.080   8.164   2.759
    1   AR   Ar  246   2.005   4.814  10.660
    1   AR   Ar  247   3.620   6.774   1.743
    1   AR   Ar  248   3.703   9.404   2.527
    1   AR   Ar  249   0.548   7.797   3.188
    1   AR   Ar  250   3.198   5.300   4.150
    1   AR   Ar  251   4.933   8.551   4.640
    1   AR   Ar  252   5.477   8.220   3.833
    1   AR   Ar  253   2.009   6.938   4.936
    1   AR   Ar  254   1.359   8.108   5.321
    1   AR   Ar  255   4.036   7.846   4.888
    1   AR   Ar  256  10.625   6.472   4.712
    1   AR   Ar  257   0.631   4.996   5.936
    1   AR   Ar  258   0.143   7.682   8.791
    1   AR   Ar  259   1.753   6.194  10.559
    1   AR   Ar  260   4.050   7.268   7.213
    1   AR   Ar  261   1.416   0.428   9.111
    1   AR   Ar  262   1.049   8.494   9.395
    1   AR   Ar  263   5.220   6.109   0.459
    1   AR   Ar  264   3.137   8.318   7.986
    1   AR   Ar  265   2.932   5.040   0.573
    1   AR   Ar  266   5.394   9.610   9.805
    1   AR   Ar  267   1.110  10.309   2.156
    1   AR   Ar  268   2.645   9.455   0.579
    1   AR   Ar  269   1.355   8.716   3.397
    1   AR   Ar  270   0.582   9.841   3.533
    1   AR   Ar  271   5.191   0.582   2.888
    1   AR   Ar  272   2.754  10.289   2.662
    1   AR   Ar  273   3.943   7.265   0.795
    1   AR   Ar  274   1.003   7.826   6.398
    1   AR   Ar  275   4.375   9.371   4.070
    1   AR   Ar  276   2.917   0.841   4.616
    1   AR   Ar  277   0.162   7.793   5.337
    1   AR   Ar  278   2.720   7.374   7.471
    1   AR   Ar  279   6.200   9.112   6.150
    1   AR   Ar  280   1.980   9.300   6.705
    1   AR   Ar  281   5.178   9.003   6.370
    1   AR   Ar  282   9.601   8.900   8.830
    1   AR   Ar  283   4.475  10.057   6.018
    1   AR   Ar  284   9.357   0.295   7.668
    1   AR   Ar  285   0.986   9.994   8.089
    1   AR   Ar  286   3.585   8.288   0.059
    1   AR   Ar  287   0.944   8.125   8.263
    1   AR   Ar  288   2.444   9.637   9.069
    1   AR   Ar  289   2.856   8.370   2.122
    1   AR   Ar  290   3.372   2.015   6.975
    1   AR   Ar  291   3.489  10.111   8.732
    1   AR   Ar  292   5.411   1.293   0.719
    1   AR   Ar  293   4.635   2.096   3.517
    1   AR   Ar  294   4.394   1.070   0.108
    1   AR   Ar  295   3.909   0.594   1.902
    1   AR   Ar  296   4.436   1.873   2.439
    1   AR   Ar  297   3.855   9.211   5.016
    1   AR   Ar  298   3.885   2.776   6.175
    1   AR   Ar  299   4.369   8.439   3.723
    1   AR   Ar  300   4.978   0.261   4.253
    1   AR   Ar  301   3.196   8.264   5.291
    1   AR   Ar  302   3.206   1.213   5.651
    1   AR   Ar  303   2.729   0.188   5.477
    1   AR   Ar  304   6.940  10.581   3.631
    1   AR   Ar  305   2.376   9.861   5.854
    1   AR   Ar  306   0.869  10.531   7.074
    1   AR   Ar  307   5.020   1.676   7.677
    1   AR   Ar  308   1.639   0.077   5.367
    1   AR   Ar  309   2.713   9.957   7.234
    1   AR   Ar  310   3.021   9.088   6.285
    1   AR   Ar  311   5.579   8.503   8.953
    1   AR   Ar  312   5.322   9.440   8.763
    1   AR   Ar  313   4.391   0.266   1.152
    1   AR   Ar  314   3.320   3.169   0.080
    1   AR   Ar  315   4.504   2.942   2.768
    1   AR   Ar  316   2.759   0.568  10.208
    1   AR   Ar  317   3.220   9.215   1.488
    1   AR   Ar  318   5.732   3.831   3.620
    1   AR   Ar  319   3.802   0.048   4.466
    1   AR   Ar  320   2.743   1.414   3.572
    1   AR   Ar  321   4.374   0.960   3.765
    1   AR   Ar  322   1.953   0.822   4.045
    1   AR   Ar  323   4.720   1.426   4.786
    1   AR   Ar  324   4.111   3.775   6.038
    1   AR   Ar  325   4.896   2.624   7.504
    1   AR   Ar  326   4.923   2.533   5.792
    1   AR   Ar  327   2.923   2.010   8.262
    1   AR   Ar  328   4.798   2.527   4.463
    1   AR   Ar  329   3.135   2.233   9.261
    1   AR   Ar  330   1.397   3.866   8.168
    1   AR   Ar  331   4.052   1.788   5.713
    1   AR   Ar  332   4.853   3.475   5.039
    1   AR   Ar  333   6.408   0.547   6.672
    1   AR   Ar  334   6.726   9.927   2.048
    1   AR   Ar  335   4.727   9.989   7.319
    1   AR   Ar  336   3.943   1.483   9.002
    1   AR   Ar  337   2.924   4.234  10.623
    1   AR   Ar  338   4.306   3.990   0.378
    1   AR   Ar  339   6.843   2.777   1.325
    1   AR   Ar  340   2.698   3.092   9.925
    1   AR   Ar  341   4.868   2.117   0.467
    1   AR   Ar  342   2.726   3.574   1.619
    1   AR   Ar  343   3.483   5.480   1.418
    1   AR   Ar  344   5.759   5.136   1.229
    1   AR   Ar  345   2.135   6.075   4.429
    1   AR   Ar  346   3.879   5.920   2.454
    1   AR   Ar  347   3.302   3.763   3.819
    1   AR   Ar  348   3.179   4.949   2.142
    1   AR   Ar  349   1.556   6.967   6.492
    1   AR   Ar  350   1.941   6.916   8.312
    1   AR   Ar  351   6.598   3.912   6.265
    1   AR   Ar  352   3.933   4.690   4.514
    1   AR   Ar  353   3.878   5.682   5.241
    1   AR   Ar  354   4.569   5.892   7.320
    1   AR   Ar  355   5.237   2.833   8.690
    1   AR   Ar  356   5.493   5.409   7.723
    1   AR   Ar  357   2.331   1.031   8.385
    1   AR   Ar  358   3.502   3.478   9.436
    1   AR   Ar  359   4.760   4.649   7.810
    1   AR   Ar  360   3.156   3.370   6.710
    1   AR   Ar  361   3.427   4.908   8.612
    1   AR   Ar  362   3.211   6.374   3.151
    1   AR   Ar  363   5.133   2.658   1.690
    1   AR   Ar  364   4.793   6.288   2.031
    1   AR   Ar  365   2.310   4.304   1.044
    1   AR   Ar  366   4.151   6.797   4.976
    1   AR   Ar  367   4.341   6.258   4.018
    1   AR   Ar  368   5.129   3.541  10.637
    1   AR   Ar  369   5.077   4.642   0.470
    1   AR   Ar  370   2.609   6.623   6.851
    1   AR   Ar  371   4.989   5.156   4.296
    1   AR   Ar  372   5.156   7.203   6.029
    1   AR   Ar  373   4.587   4.066   2.817
    1   AR   Ar  374   1.372   7.485   7.547
    1   AR   Ar  375   1.312   5.633   6.473
    1   AR   Ar  376   6.446   5.236   4.813
    1   AR   Ar  377   4.369   6.469   6.294
    1   AR   Ar  378   2.957   5.108   7.524
    1   AR   Ar  379   5.124   5.825   8.737
    1   AR   Ar  380   4.006   4.020   8.592
    1   AR   Ar  381   2.921   3.974   7.904
    1   AR   Ar  382   2.929   1.943  10.263
    1   AR   Ar  383   5.448   7.399   9.086
    1   AR   Ar  384   4.331   6.569   9.005
    1   AR   Ar  385   4.849   7.770   2.905
    1   AR   Ar  386   2.565   7.442   1.755
    1   AR   Ar  387   6.075   6.874   9.871
    1   AR   Ar  388   4.284   9.403   8.145
    1   AR   Ar  389   2.503   6.501   2.156
    1   AR   Ar  390   4.559   7.880   0.150
    1   AR   Ar  391   4.666   5.456   1.209
    1   AR   Ar  392   4.251   7.588   1.973
    1   AR   Ar  393   3.084   7.244   5.145
    1   AR   Ar  394   2.978   8.239   4.287
    1   AR   Ar  395   2.884   9.703   4.340
    1   AR   Ar  396   5.359   7.557   4.648
    1   AR   Ar  397   3.206   8.313   6.885
    1   AR   Ar  398   1.571   5.396   7.453
    1   AR   Ar  399   6.354   5.645   6.274
    1   AR   Ar  400   4.445   8.125   6.533
    1   AR   Ar  401   3.575   5.509   6.326
    1   AR   Ar  402   4.385   8.291   7.628
    1   AR   Ar  403   3.821   7.464   5.974
    1   AR   Ar  404   7.089  10.209   7.502
    1   AR   Ar  405   3.240   6.336   8.213
    1   AR   Ar  406   4.521   7.524   9.601
    1   AR   Ar  407   2.893   7.278   0.633
    1   AR   Ar  408   3.942   9.279   7.151
    1   AR   Ar  409   4.221   9.336   9.178
    1   AR   Ar  410   4.647   8.842  10.285
    1   AR   Ar  411   5.085   7.208   0.923
    1   AR   Ar  412   4.722   0.183  10.038
    1   AR   Ar  413   4.470  10.151   2.189
    1   AR   Ar  414   4.831   6.974  10.524
    1   AR   Ar  415   2.941   8.478   3.325
    1   AR   Ar  416   6.797   9.058   0.519
    1   AR   Ar  417   4.102   9.014   6.084
    1   AR   Ar  418   2.077   9.340   2.872
    1   AR   Ar  419   5.883   0.853   3.966
    1   AR   Ar  420   0.122   9.820   2.160
    1   AR   Ar  421   0.694  10.319   5.232
    1   AR   Ar  422   5.933   8.293   6.911
    1   AR   Ar  423   3.879   7.558   8.263
    1   AR   Ar  424   6.061   8.553   4.879
    1   AR   Ar  425   5.836  10.369   8.187
    1   AR   Ar  426   2.381   1.380   6.531
    1   AR   Ar  427   5.696   8.945   7.874
    1   AR   Ar  428   3.787  10.237   7.765
    1   AR   Ar  429   2.163   7.953   8.294
    1   AR   Ar  430   2.977   9.167   9.951
    1   AR   Ar  431   4.741  10.618   8.246
    1   AR   Ar  432   5.295   0.510   7.046
    1   AR   Ar  433   6.013   1.126   9.517
    1   AR   Ar  434   5.432   0.375   0.197
    1   AR   Ar  435   3.678  10.218   0.813
    1   AR   Ar  436   6.503   1.278   0.910
    1   AR   Ar  437   4.743   9.092   1.545
    1   AR   Ar  438   3.548   3.063   4.634
    1   AR   Ar  439   8.539   1.728   1.159
    1   AR   Ar  440   9.125   9.315   0.624
    1   AR   Ar  441   6.171   0.038   5.573
    1   AR   Ar  442   4.954   1.736   6.550
    1   AR   Ar  443   4.026   1.261   6.652
    1   AR   Ar  444   3.196   2.446   5.442
    1   AR   Ar  445   7.582   2.452   6.296
    1   AR   Ar  446   3.961   2.127   7.997
    1   AR   Ar  447   6.055   2.683   5.973
    1   AR   Ar  448   7.192   0.429   5.875
    1   AR   Ar  449   6.200   9.799   9.257
    1   AR   Ar  450   7.429   9.698   9.456
    1   AR   Ar  451   6.607   0.018   8.899
    1   AR   Ar  452   5.398   0.852   8.175
    1   AR   Ar  453   6.705   9.268   7.353
    1   AR   Ar  454   8.501   2.371   8.844
    1   AR   Ar  455   7.897   7.280   9.239
    1   AR   Ar  456   6.345   7.017   8.624
    1   AR   Ar  457   4.601   1.281   1.328
    1   AR   Ar  458   3.263   1.799   0.704
    1   AR   Ar  459   6.784   3.042   9.607
    1   AR   Ar  460   5.944   2.292   1.080
    1   AR   Ar  461   5.527   1.377   1.864
    1   AR   Ar  462   4.088   3.123   3.743
    1   AR   Ar  463   5.406   0.485   5.095
    1   AR   Ar  464   4.616   3.131   0.909
    1   AR   Ar  465   3.515   2.059   3.453
    1   AR   Ar  466   6.722   2.347   2.477
    1   AR   Ar  467   5.000   3.303   6.529
    1   AR   Ar  468   4.045   3.185   1.813
    1   AR   Ar  469   5.955   4.625   2.025
    1   AR   Ar  470   4.234   2.787   9.070
    1   AR   Ar  471   5.860   2.538   6.913
    1   AR   Ar  472   7.915   1.539   4.485
    1   AR   Ar  473   6.421   1.375   8.419
    1   AR   Ar  474   5.423   4.434   9.865
    1   AR   Ar  475   6.269   3.837   8.143
    1   AR   Ar  476   7.375   2.898   5.306
    1   AR   Ar  477   2.914   2.717   7.452
    1   AR   Ar  478   6.558   2.376   0.257
    1   AR   Ar  479   4.840   1.757   9.950
    1   AR   Ar  480   5.299   2.694   9.861
    1   AR   Ar  481   7.611   5.294   9.436
    1   AR   Ar  482   8.544   5.529   1.091
    1   AR   Ar  483   7.621   2.352   0.757
    1   AR   Ar  484   6.991   4.713   0.591
    1   AR   Ar  485   5.083   3.827   1.855
    1   AR   Ar  486   5.216   5.582   5.346
    1   AR   Ar  487   3.349   3.762   2.397
    1   AR   Ar  488   7.759   4.823   1.359
    1   AR   Ar  489   5.316   4.689   3.118
    1   AR   Ar  490   5.749   4.452   4.585
    1   AR   Ar  491   9.039   6.362   3.011
    1   AR   Ar  492   6.046   3.762   1.339
    1   AR   Ar  493   2.106   2.312   6.035
    1   AR   Ar  494   4.505   4.154   3.855
    1   AR   Ar  495   4.211   0.634   5.278
    1   AR   Ar  496   5.675   3.699   5.612
    1   AR   Ar  497   5.617   1.742   4.570
    1   AR   Ar  498   6.021   1.374   7.171
    1   AR   Ar  499   6.860   2.944   8.434
    1   AR   Ar  500   6.811   4.530   9.339
    1   AR   Ar  501   5.263   3.847   8.189
    1   AR   Ar  502   3.842   4.710   9.911
    1   AR   Ar  503   4.489   3.776   9.892
    1   AR   Ar  504   4.768   6.102   9.838
    1   AR   Ar  505   6.564   6.067   9.170
    1   AR   Ar  506   6.014   5.967   2.093
    1   AR   Ar  507   6.620   4.879  10.310
    1   AR   Ar  508   7.073   6.989   9.566
    1   AR   Ar  509   6.298   5.606   0.487
    1   AR   Ar  510   7.001   6.115  10.160
    1   AR   Ar  511   3.565   4.276   1.138
    1   AR   Ar  512   6.763   6.758   3.088
    1   AR   Ar  513   6.885   5.389   2.637
    1   AR   Ar  514   4.546   4.398   6.790
    1   AR   Ar  515   6.847   0.316   1.566
    1   AR   Ar  516   7.073   5.631   1.527
    1   AR   Ar  517   5.778   4.076   7.222
    1   AR   Ar  518   6.455   4.779   7.701
    1   AR   Ar  519   5.403   6.118   4.354
    1   AR   Ar  520   5.047   4.541   5.430
    1   AR   Ar  521   4.639   5.275   6.114
    1   AR   Ar  522   6.026   3.701   9.111
    1   AR   Ar  523   2.674   2.919   8.735
    1   AR   Ar  524   9.816   6.758   5.994
    1   AR   Ar  525   2.344   5.778   6.204
    1   AR   Ar  526   6.222   8.031   8.236
    1   AR   Ar  527   4.153   5.573   9.307
    1   AR   Ar  528   7.241   4.352   8.332
    1   AR   Ar  529   5.765   5.824  10.274
    1   AR   Ar  530   3.783   8.226   9.076
    1   AR   Ar  531   7.513   9.128   1.493
    1   AR   Ar  532   4.283   9.089   0.558
    1   AR   Ar  533   4.252   6.852   2.827
    1   AR   Ar  534   3.652   8.183   1.372
    1   AR   Ar  535   6.502   6.077   4.090
    1   AR   Ar  536   8.471   7.289   0.353
    1   AR   Ar  537   3.449   1.671   4.731
    1   AR   Ar  538   5.199   8.863   2.891
    1   AR   Ar  539   3.354   6.591   5.948
    1   AR   Ar  540   6.074   8.598   1.908
    1   AR   Ar  541   6.036   4.619   5.835
    1   AR   Ar  542   4.883   8.394   5.621
    1   AR   Ar  543   7.622   6.013   4.974
    1   AR   Ar  544   6.497   7.348   5.059
    1   AR   Ar  545   4.869   6.656   8.088
    1   AR   Ar  546   5.667   6.301   7.333
    1   AR   Ar  547   0.352   4.131   8.589
    1   AR   Ar  548   6.827   6.778   7.734
    1   AR   Ar  549   5.244   7.747   7.948
    1   AR   Ar  550   3.198   9.358   7.989
    1   AR   Ar  551   6.083   7.369   7.458
    1   AR   Ar  552   7.438   0.343   8.362
    1   AR   Ar  553   6.984   7.165   2.003
    1   AR   Ar  554   5.912  10.221   1.181
    1   AR   Ar  555   7.045  10.187   0.974
    1   AR   Ar  556   5.785   9.160   0.008
    1   AR   Ar  557   3.524   7.072  10.272
    1   AR   Ar  558   4.210   8.462   2.443
    1   AR   Ar  559   6.211   7.815   1.095
    1   AR   Ar  560   5.376   0.237   1.594
    1   AR   Ar  561   5.593   9.540   2.181
    1   AR   Ar  562   5.359   9.191   4.028
    1   AR   Ar  563   5.830  10.596   3.408
    1   AR   Ar  564   4.907  10.184   3.167
    1   AR   Ar  565   5.042   7.117   7.001
    1   AR   Ar  566   5.840  10.185   4.432
    1   AR   Ar  567   6.211   7.249   4.051
    1   AR   Ar  568   7.657  10.153   5.528
    1   AR   Ar  569   7.016   7.626   6.844
    1   AR   Ar  570   5.534  10.010   6.081
    1   AR   Ar  571   7.358   1.310   7.813
    1   AR   Ar  572   6.691  10.080   6.261
    1   AR   Ar  573   8.675   1.947   6.548
    1   AR   Ar  574   4.916   0.327   6.001
    1   AR   Ar  575   7.555   6.751   7.046
    1   AR   Ar  576   8.292  10.270   8.884
    1   AR   Ar  577   6.555   0.138  10.051
    1   AR   Ar  578   6.133   3.729  10.368
    1   AR   Ar  579  10.072   0.361   0.803
    1   AR   Ar  580   7.722   0.720   1.358
    1   AR   Ar  581   7.747  10.603   0.157
    1   AR   Ar  582   7.757   1.283   2.191
    1   AR   Ar  583   8.660   0.895   1.911
    1   AR   Ar  584   5.629   0.140   9.275
    1   AR   Ar  585   6.753   1.585   4.173
    1   AR   Ar  586   8.508   2.923   6.730
    1   AR   Ar  587   6.871  10.489   4.598
    1   AR   Ar  588   7.880   8.950   5.314
    1   AR   Ar  589   8.678  10.187   3.800
    1   AR   Ar  590   8.627   0.708   5.916
    1   AR   Ar  591   7.271   9.257   6.097
    1   AR   Ar  592   0.251  10.262   6.356
    1   AR   Ar  593   6.464   9.165   8.582
    1   AR   Ar  594   5.062   1.766   8.711
    1   AR   Ar  595   4.768   0.788   8.974
    1   AR   Ar  596   6.343   8.722   9.844
    1   AR   Ar  597   5.896   7.947   5.694
    1   AR   Ar  598   7.164   9.831  10.418
    1   AR   Ar  599   0.301  10.569   8.902
    1   AR   Ar  600   7.736   2.121   8.341
    1   AR   Ar  601   6.313   2.323   9.033
    1   AR   Ar  602   6.932   2.106  10.054
    1   AR   Ar  603   8.679   2.741   1.143
    1   AR   Ar  604   8.335   1.049   0.396
    1   AR   Ar  605   4.084   2.251   1.312
    1   AR   Ar  606   5.779   3.206   2.438
    1   AR   Ar  607   7.107   0.379   2.630
    1   AR   Ar  608   6.541   1.459   1.862
    1   AR   Ar  609   5.859   2.617   3.811
    1   AR   Ar  610   3.413   2.582   2.407
    1   AR   Ar  611   5.910   1.869   2.810
    1   AR   Ar  612   6.501   3.930   2.804
    1   AR   Ar  613   5.736   1.444   5.575
    1   AR   Ar  614   7.737   3.431   8.641
    1   AR   Ar  615   7.714   0.093   9.605
    1   AR   Ar  616   7.902   0.598   5.217
    1   AR   Ar  617   6.714   1.299   6.133
    1   AR   Ar  618  10.096   4.651   9.152
    1   AR   Ar  619   7.767   2.828   7.506
    1   AR   Ar  620   7.490   4.994   7.415
    1   AR   Ar  621   9.045   1.469  10.359
    1   AR   Ar  622   7.431   1.453   0.256
    1   AR   Ar  623   7.133   1.026   9.112
    1   AR   Ar  624   7.824   4.163   6.747
    1   AR   Ar  625   5.649   1.946  10.448
    1   AR   Ar  626   7.016   3.671   3.619
    1   AR   Ar  627   8.732   3.785   9.895
    1   AR   Ar  628   9.359   5.441   9.812
    1   AR   Ar  629   5.958  10.604   2.346
    1   AR   Ar  630   5.044   5.214   2.216
    1   AR   Ar  631   8.587   4.062   2.924
    1   AR   Ar  632   7.420   3.786   1.173
    1   AR   Ar  633   8.633   2.944   2.937
    1   AR   Ar  634   6.055   6.308   5.201
    1   AR   Ar  635  10.026   3.098   3.516
    1   AR   Ar  636   7.111   4.210   2.059
    1   AR   Ar  637   6.000   3.379   4.647
    1   AR   Ar  638   6.764   5.779   7.262
    1   AR   Ar  639   7.027   2.562   3.980
    1   AR   Ar  640   8.009   3.096   4.419
    1   AR   Ar  641   6.020   2.454   8.072
    1   AR   Ar  642   6.933   2.022   7.140
    1   AR   Ar  643   8.054   4.306   9.066
    1   AR   Ar  644   0.151   5.210   7.224
    1   AR   Ar  645   8.081   2.134  10.420
    1   AR   Ar  646   4.812   4.822   9.151
    1   AR   Ar  647   4.198   2.491  10.320
    1   AR   Ar  648   7.317   4.060  10.286
    1   AR   Ar  649   8.140   6.314   9.577
    1   AR   Ar  650   8.953   6.315  10.312
    1   AR   Ar  651   7.791   2.882   9.650
    1   AR   Ar  652   7.885   6.513  10.554
    1   AR   Ar  653   6.998   7.174  10.620
    1   AR   Ar  654   5.438   7.338   2.188
    1   AR   Ar  655   5.843   5.841   3.286
    1   AR   Ar  656   5.948   6.611   1.360
    1   AR   Ar  657  10.590   3.759   5.139
    1   AR   Ar  658   6.575   3.369   0.475
    1   AR   Ar  659   7.242   6.737   4.104
    1   AR   Ar  660   7.931   6.406   3.223
    1   AR   Ar  661   6.588   4.767   3.686
    1   AR   Ar  662   9.517   3.567   5.644
    1   AR   Ar  663   8.393   6.798   5.769
    1   AR   Ar  664   4.740   5.711   3.307
    1   AR   Ar  665   8.120   5.210   8.388
    1   AR   Ar  666   8.758   7.075   8.701
    1   AR   Ar  667   6.673   3.153   7.529
    1   AR   Ar  668   9.111   6.884   7.405
    1   AR   Ar  669  10.066   6.943   9.558
    1   AR   Ar  670   5.718   4.757   8.673
    1   AR   Ar  671   9.017   4.732   9.202
    1   AR   Ar  672   9.227   7.710  10.403
    1   AR   Ar  673   6.061   6.048   8.295
    1   AR   Ar  674   5.358   8.547   0.855
    1   AR   Ar  675   7.469   8.047   0.594
    1   AR   Ar  676   0.062   6.758   3.623
    1   AR   Ar  677   5.986   7.006   0.333
    1   AR   Ar  678   5.096   8.217   1.861
    1   AR   Ar  679   6.060   8.096   2.949
    1   AR   Ar  680   7.696   9.723   4.529
    1   AR   Ar  681   6.165   6.966   6.460
    1   AR   Ar  682   9.158   9.227   3.659
    1   AR   Ar  683   7.563   7.348   5.152
    1   AR   Ar  684   8.663   8.655   2.454
    1   AR   Ar  685   5.322   9.215   5.296
    1   AR   Ar  686   8.938  10.636   4.983
    1   AR   Ar  687   7.801   7.527   4.054
    1   AR   Ar  688   8.879   7.605   6.682
    1   AR   Ar  689   7.250   4.066   4.752
    1   AR   Ar  690   6.263   7.771   9.380
    1   AR   Ar  691   7.096   7.619   8.483
    1   AR   Ar  692   9.370   6.005   6.576
    1   AR   Ar  693   7.037   5.484   8.328
    1   AR   Ar  694   7.888   7.746  10.252
    1   AR   Ar  695   9.933   8.114   9.598
    1   AR   Ar  696   7.678   6.242   8.733
    1   AR   Ar  697   9.036   8.278   0.563
    1   AR   Ar  698   5.435   7.994  10.186
    1   AR   Ar  699   7.209   8.366   2.144
    1   AR   Ar  700   6.388   8.126   0.003
    1   AR   Ar  701   8.483   9.686   2.142
    1   AR   Ar  702   6.787   9.722   3.151
    1   AR   Ar  703   9.512   0.911   3.515
    1   AR   Ar  704   8.056   9.423   3.365
    1   AR   Ar  705   6.601   0.914   4.972
    1   AR   Ar  706   9.259   8.964   5.072
    1   AR   Ar  707   7.492   0.481   7.316
    1   AR   Ar  708   6.214   0.942   2.860
    1   AR   Ar  709   0.249   8.756   5.967
    1   AR   Ar  710   6.825   9.321   4.143
    1   AR   Ar  711   5.786   9.972   7.166
    1   AR   Ar  712   8.801   9.547   7.039
    1   AR   Ar  713   9.687   9.708   4.466
    1   AR   Ar  714   5.396   6.150   6.260
    1   AR   Ar  715   7.069   6.994   5.967
    1   AR   Ar  716   8.510   9.246   8.387
    1   AR   Ar  717   7.847   8.266   8.872
    1   AR   Ar  718   6.199   0.946  10.629
    1   AR   Ar  719   8.345   9.215  10.002
    1   AR   Ar  720   7.411   8.659  10.203
    1   AR   Ar  721   6.381   0.648   7.759
    1   AR   Ar  722   9.168   9.718   9.441
    1   AR   Ar  723   2.476   0.157   9.152
    1   AR   Ar  724   9.488   1.240   0.640
    1   AR   Ar  725   7.638  10.086   2.686
    1   AR   Ar  726   7.910   2.417   1.957
    1   AR   Ar  727  10.326   8.216   3.040
    1   AR   Ar  728   9.006  10.600   1.601
    1   AR   Ar  729   7.395   1.780   3.324
    1   AR   Ar  730   6.473   2.351   5.089
    1   AR   Ar  731   7.544   3.197   2.691
    1   AR   Ar  732   9.129  10.063   2.761
    1   AR   Ar  733   9.621   0.002   4.030
    1   AR   Ar  734  10.351   9.846   5.360
    1   AR   Ar  735   7.719  10.262   6.587
    1   AR   Ar  736   8.505   9.569   6.077
    1   AR   Ar  737   8.349  10.225   7.610
    1   AR   Ar  738   8.320   1.086   7.853
    1   AR   Ar  739   0.921   0.900   5.645
    1   AR   Ar  740   1.581   9.744   4.778
    1   AR   Ar  741   9.616  10.204   0.525
    1   AR   Ar  742  10.372   9.780   8.780
    1   AR   Ar  743   9.497   0.292  10.475
    1   AR   Ar  744   8.470   0.608   8.778
    1   AR   Ar  745   8.430   0.512  10.165
    1   AR   Ar  746   8.825   2.061   2.258
    1   AR   Ar  747   2.789   2.603   1.510
    1   AR   Ar  748   8.062   1.387   9.615
    1   AR   Ar  749   9.734   0.968   1.672
    1   AR   Ar  750   8.974   1.715   5.004
    1   AR   Ar  751   8.332   1.397   3.156
    1   AR   Ar  752   1.187   0.811   2.505
    1   AR   Ar  753   8.031  10.305   1.196
    1   AR   Ar  754   9.919   1.996   3.834
    1   AR   Ar  755   8.339   2.464   5.296
    1   AR   Ar  756   8.032   1.538   5.864
    1   AR   Ar  757   8.027   4.577   5.537
    1   AR   Ar  758   9.961   2.477   5.794
    1   AR   Ar  759   0.479   0.760   7.830
    1   AR   Ar  760   0.178   2.385   7.399
    1   AR   Ar  761   1.308   1.104   7.416
    1   AR   Ar  762   9.815   2.339   8.087
    1   AR   Ar  763   0.594   0.701   6.537
    1   AR   Ar  764   9.790  10.035   7.189
    1   AR   Ar  765   6.777   0.328   0.490
    1   AR   Ar  766  10.554   1.319   6.945
    1   AR   Ar  767   1.033   1.814   9.455
    1   AR   Ar  768   0.891   2.779   0.372
    1   AR   Ar  769   9.723   2.037   1.823
    1   AR   Ar  770   9.554   6.208   0.557
    1   AR   Ar  771   8.972   4.669   3.755
    1   AR   Ar  772   0.366   4.651  10.408
    1   AR   Ar  773   9.467   5.279   1.341
    1   AR   Ar  774   8.234   3.413   1.951
    1   AR   Ar  775   1.170   2.844   5.929
    1   AR   Ar  776  10.597   5.119   1.464
    1   AR   Ar  777   8.827   3.405   3.797
    1   AR   Ar  778   7.747   5.363   3.558
    1   AR   Ar  779  10.176   4.231   6.064
    1   AR   Ar  780   2.066   3.826   3.963
    1   AR   Ar  781   8.161   4.132   4.187
    1   AR   Ar  782   9.331   4.499   4.882
    1   AR   Ar  783   7.885   1.367   6.872
    1   AR   Ar  784  10.256   3.991   7.195
    1   AR   Ar  785   8.732   3.553   8.864
    1   AR   Ar  786   7.707   5.896   6.396
    1   AR   Ar  787   1.555   6.386   9.207
    1   AR   Ar  788   8.295   3.622   5.929
    1   AR   Ar  789   0.063   1.687   8.164
    1   AR   Ar  790   7.510   3.213   0.108
    1   AR   Ar  791   8.982   2.496   9.927
    1   AR   Ar  792   8.799   4.508   8.126
    1   AR   Ar  793   0.101   3.546   9.393
    1   AR   Ar  794  10.041   6.239   1.582
    1   AR   Ar  795  10.486   3.051   2.131
    1   AR   Ar  796   8.919   7.197   9.659
    1   AR   Ar  797   9.850   3.973   2.575
    1   AR   Ar  798   8.746   5.455   4.372
    1   AR   Ar  799   9.750   3.526   4.519
    1   AR   Ar  800   0.381   6.459   2.051
    1   AR   Ar  801   9.979   4.400   3.794
    1   AR   Ar  802   9.596   7.874   5.130
    1   AR   Ar  803   9.601   5.086   5.927
    1   AR   Ar  804   7.753   6.453   0.875
    1   AR   Ar  805   0.096   3.836   3.978
    1   AR   Ar  806   8.689   5.159   7.114
    1   AR   Ar  807  10.110   4.581   8.053
    1   AR   Ar  808   0.531   6.372   6.422
    1   AR   Ar  809   9.332   3.472   7.625
    1   AR   Ar  810   7.830   6.020   7.675
    1   AR   Ar  811   0.345   2.549   9.834
    1   AR   Ar  812   0.646   6.036   7.559
    1   AR   Ar  813   8.770   3.075   0.139
    1   AR   Ar  814  10.590   3.533   0.930
    1   AR   Ar  815   1.120   5.376   9.826
    1   AR   Ar  816   9.737   7.561   8.440
    1   AR   Ar  817   8.214   4.728   0.038
    1   AR   Ar  818   8.662   4.516   1.965
    1   AR   Ar  819  10.018   6.736   2.789
    1   AR   Ar  820   8.110   8.176   1.432
    1   AR   Ar  821   9.101   5.271   0.286
    1   AR   Ar  822   7.974   6.229   2.059
    1   AR   Ar  823   8.015   7.360   2.019
    1   AR   Ar  824   9.257   7.179   1.197
    1   AR   Ar  825   8.398   6.684   4.581
    1   AR   Ar  826   9.217   8.232   4.038
    1   AR   Ar  827   1.102   6.228   4.468
    1   AR   Ar  828   8.630   5.784   5.570
    1   AR   Ar  829   8.442   8.523   6.686
    1   AR   Ar  830   7.063   8.264   5.826
    1   AR   Ar  831   2.373   8.840   7.628
    1   AR   Ar  832   9.252  10.461   6.259
    1   AR   Ar  833   9.468   8.847   6.507
    1   AR   Ar  834   7.531   8.109   7.637
    1   AR   Ar  835   8.077   7.840   6.036
    1   AR   Ar  836  10.263   9.410   6.409
    1   AR   Ar  837  10.459   9.173   9.578
    1   AR   Ar  838   8.083   9.286   0.295
    1   AR   Ar  839  10.277   5.381   0.506
    1   AR   Ar  840  10.601  10.559   0.084
    1   AR   Ar  841   8.652  10.172  10.440
    1   AR   Ar  842   9.994   9.155   2.738
    1   AR   Ar  843   1.050  10.111   0.162
    1   AR   Ar  844  10.368   1.975   0.535
    1   AR   Ar  845   0.528   9.035   2.728
    1   AR   Ar  846   6.760   9.581   5.182
    1   AR   Ar  847   8.972   7.068   3.742
    1   AR   Ar  848   9.937   7.257   4.346
    1   AR   Ar  849   7.139   8.292   4.736
    1   AR   Ar  850   9.214   9.121   1.757
    1   AR   Ar  851   8.381   8.879   4.156
    1   AR   Ar  852   2.085   7.705   4.175
    1   AR   Ar  853   7.575   9.736   8.386
    1   AR   Ar  854   9.335   1.124   7.221
    1   AR   Ar  855  10.034   8.219   5.981
    1   AR   Ar  856  10.139   0.339   2.602
    1   AR   Ar  857   0.068  10.238   4.458
    1   AR   Ar  858   8.585   0.299   6.995
    1   AR   Ar  859   0.692   9.240   4.683
    1   AR   Ar  860   0.052   9.190   7.216
    1   AR   Ar  861   9.266   8.811  10.268
    1   AR   Ar  862   9.870   0.397   8.589
    1   AR   Ar  863   9.886   9.706  10.328
    1   AR   Ar  864   0.720   9.936   9.787
   10.68000 10.68000 10.68000
